/*--------------------------------*- C++ -*----------------------------------*\
  =========                 |
  \\      /  F ield         | OpenFOAM: The Open Source CFD Toolbox
   \\    /   O peration     | Website:  https://openfoam.org
    \\  /    A nd           | Version:  7
     \\/     M anipulation  |
\*---------------------------------------------------------------------------*/
FoamFile
{
    version     2.0;
    format      ascii;
    class       volScalarField;
    location    "0.3";
    object      T;
}
// * * * * * * * * * * * * * * * * * * * * * * * * * * * * * * * * * * * * * //

dimensions      [0 0 0 1 0 0 0];

internalField   nonuniform List<scalar> 
10000
(
0.5
0.0669146
-0.0353169
-0.0277115
-0.00789976
0.00112931
0.0022071
0.000963794
3.88623e-05
-0.000206207
-0.000130461
-2.60444e-05
1.76213e-05
1.74915e-05
6.11695e-06
-8.30322e-07
-2.0884e-06
-1.00319e-06
-8.84285e-09
2.76677e-07
1.44459e-07
-3.76837e-08
-1.14571e-07
-9.7242e-08
-4.63078e-08
-4.59635e-09
1.51352e-08
1.78943e-08
1.29079e-08
6.8001e-09
2.43007e-09
1.6539e-10
-6.27249e-10
-6.77055e-10
-4.76205e-10
-2.64434e-10
-1.1853e-10
-3.92662e-11
-4.68901e-12
6.2364e-12
7.16675e-12
5.11765e-12
2.94741e-12
1.44864e-12
6.0681e-13
2.03092e-13
3.90137e-14
-1.31326e-14
-2.12818e-14
-1.62814e-14
-9.81449e-15
-5.12172e-15
-2.37651e-15
-9.77588e-16
-3.43446e-16
-8.97332e-17
-4.32389e-18
1.57474e-17
1.48837e-17
9.76347e-18
5.42765e-18
2.70252e-18
1.22784e-18
5.09317e-19
1.89563e-19
5.99668e-20
1.3214e-20
-7.79994e-22
-3.36092e-21
-2.74926e-21
-1.69778e-21
-9.13159e-22
-4.47615e-22
-2.03514e-22
-8.6225e-23
-3.38582e-23
-1.20845e-23
-3.72262e-24
-8.29605e-25
1.28826e-26
1.70552e-25
1.42289e-25
8.80431e-26
4.74598e-26
2.34334e-26
1.08204e-26
4.71317e-27
1.93945e-27
7.50097e-28
2.68713e-28
8.61263e-29
2.24154e-29
2.86021e-30
-1.73677e-30
-1.97702e-30
-1.33248e-30
-7.5018e-31
-3.82318e-31
-1.8162e-31
-7.93225e-32
0.933085
0.5
0.14482
-0.0139075
-0.0411718
-0.0230289
-0.00507431
0.00215704
0.00250724
0.0010107
-1.07004e-07
-0.000255333
-0.000158239
-3.19225e-05
2.18046e-05
2.21017e-05
7.93699e-06
-9.74715e-07
-2.60122e-06
-1.08198e-06
3.3285e-07
7.21044e-07
4.50203e-07
6.76218e-08
-1.52946e-07
-1.93526e-07
-1.38675e-07
-6.68132e-08
-1.59123e-08
8.27496e-09
1.41095e-08
1.1483e-08
6.89281e-09
3.20672e-09
1.0364e-09
5.13948e-11
-2.53752e-10
-2.59803e-10
-1.78256e-10
-9.87378e-11
-4.56533e-11
-1.6954e-11
-4.04034e-12
5.64991e-13
1.54319e-12
1.28728e-12
8.07586e-13
4.29414e-13
1.99373e-13
8.00507e-14
2.60275e-14
5.01789e-15
-1.43827e-15
-2.43075e-15
-1.85438e-15
-1.11491e-15
-5.83462e-16
-2.74019e-16
-1.15937e-16
-4.33359e-17
-1.33697e-17
-2.54011e-18
5.96274e-19
1.05556e-18
7.98008e-19
4.76994e-19
2.50598e-19
1.19883e-19
5.28409e-20
2.14147e-20
7.83766e-21
2.45976e-21
5.51828e-22
-1.47727e-23
-1.21875e-22
-1.01494e-22
-6.29067e-23
-3.39027e-23
-1.66768e-23
-7.63406e-24
-3.27403e-24
-1.313e-24
-4.86577e-25
-1.61604e-25
-4.4194e-26
-6.72031e-27
2.67348e-27
3.51769e-27
2.45963e-27
1.41036e-27
7.26046e-28
3.47021e-28
1.56295e-28
6.67325e-29
2.70152e-29
1.03103e-29
3.65576e-30
1.16428e-30
3.05973e-31
-3.4266e-33
1.03532
0.85518
0.5
0.182448
0.00830366
-0.0419281
-0.032441
-0.0120093
3.83946e-05
0.00307758
0.00201924
0.000522534
-0.000189753
-0.000261855
-0.000118924
-6.46527e-06
2.76274e-05
1.88094e-05
3.76387e-06
-3.19782e-06
-3.05968e-06
-6.7375e-07
9.55752e-07
1.26002e-06
8.19313e-07
2.73684e-07
-6.98755e-08
-1.86446e-07
-1.67061e-07
-1.03025e-07
-4.57185e-08
-1.09288e-08
4.19667e-09
7.69995e-09
6.30751e-09
3.85457e-09
1.89031e-09
7.16001e-10
1.54378e-10
-5.06327e-11
-9.00259e-11
-7.15826e-11
-4.3706e-11
-2.2428e-11
-9.78255e-12
-3.45292e-12
-7.70996e-13
1.33149e-13
3.07651e-13
2.49007e-13
1.53958e-13
8.14918e-14
3.80938e-14
1.56845e-14
5.45865e-15
1.36789e-15
7.04856e-18
-2.95386e-16
-2.6376e-16
-1.69413e-16
-9.27907e-17
-4.55094e-17
-2.02869e-17
-8.18604e-18
-2.90874e-18
-8.33662e-19
-1.23731e-19
6.41856e-20
8.11005e-20
5.72107e-20
3.3052e-20
1.70031e-20
8.02421e-21
3.50956e-21
1.42015e-21
5.23681e-22
1.68709e-22
4.15357e-23
2.50542e-24
-5.94719e-24
-5.55065e-24
-3.57234e-24
-1.96634e-24
-9.83219e-25
-4.57402e-25
-1.99886e-25
-8.21643e-26
-3.15669e-26
-1.11324e-26
-3.44616e-27
-8.14604e-28
-4.12895e-29
1.16897e-28
1.0565e-28
6.68493e-29
3.64358e-29
1.81536e-29
8.47281e-30
3.74343e-30
1.4659e-30
1.02771
1.01391
0.817552
0.5
0.206389
0.0268058
-0.0388678
-0.0384382
-0.0184167
-0.00302402
0.00284109
0.00282243
0.00118554
4.30429e-05
-0.000295137
-0.000210188
-5.8719e-05
1.90434e-05
2.78222e-05
1.11584e-05
-2.39207e-06
-6.04037e-06
-3.75782e-06
-5.25248e-07
1.29173e-06
1.58087e-06
1.0889e-06
4.83292e-07
7.32956e-08
-1.06459e-07
-1.3564e-07
-1.00857e-07
-5.6128e-08
-2.33399e-08
-5.45189e-09
1.79015e-09
3.3781e-09
2.75608e-09
1.69375e-09
8.53157e-10
3.48822e-10
1.01027e-10
2.99839e-12
-2.34717e-11
-2.26825e-11
-1.51557e-11
-8.37717e-12
-3.99562e-12
-1.63449e-12
-5.36316e-13
-1.01004e-13
3.41482e-14
5.4382e-14
4.1221e-14
2.46926e-14
1.28406e-14
5.9572e-15
2.46297e-15
8.79087e-16
2.41762e-16
2.32826e-17
-3.15203e-17
-3.27543e-17
-2.2097e-17
-1.24679e-17
-6.27726e-18
-2.88319e-18
-1.21203e-18
-4.60173e-19
-1.51128e-19
-3.71553e-20
-1.48643e-21
6.21787e-21
5.66121e-21
3.631e-21
1.99444e-21
9.92278e-22
4.56856e-22
1.95985e-22
7.80755e-23
2.84269e-23
9.06697e-24
2.21863e-24
1.38769e-25
-3.08028e-25
-2.87605e-25
-1.84755e-25
-1.01581e-25
-5.08086e-26
-2.36896e-26
-1.04027e-26
-4.31295e-27
-1.68114e-27
-6.07933e-28
-1.97574e-28
-5.29214e-29
-7.79757e-30
3.23095e-30
4.09618e-30
3.1811e-30
1.0079
1.04117
0.991696
0.793611
0.5
0.223365
0.0421539
-0.0343032
-0.0421138
-0.0239641
-0.00647483
0.00197814
0.00332511
0.00186745
0.000400745
-0.000242953
-0.000280988
-0.000122607
-1.63936e-06
3.47907e-05
2.28166e-05
2.64703e-06
-7.85102e-06
-8.35844e-06
-4.50774e-06
-7.86978e-07
1.15165e-06
1.52784e-06
1.13113e-06
5.88974e-07
1.92171e-07
-1.09782e-08
-7.61823e-08
-7.27292e-08
-4.8062e-08
-2.49164e-08
-9.91539e-09
-2.31162e-09
6.20499e-10
1.2486e-09
1.02176e-09
6.32188e-10
3.2512e-10
1.39939e-10
4.70053e-11
8.17249e-12
-4.22311e-12
-5.93039e-12
-4.42679e-12
-2.62611e-12
-1.34147e-12
-6.00527e-13
-2.31052e-13
-6.98529e-14
-9.95577e-15
6.94114e-15
8.47126e-15
6.02423e-15
3.49423e-15
1.78269e-15
8.18665e-16
3.38118e-16
1.22313e-16
3.54516e-17
5.17565e-18
-2.94659e-18
-3.66674e-18
-2.58942e-18
-1.49761e-18
-7.69394e-19
-3.61175e-19
-1.56183e-19
-6.18636e-20
-2.19032e-20
-6.45628e-21
-1.17675e-21
2.746e-22
4.69315e-22
3.48182e-22
2.0579e-22
1.07728e-22
5.18158e-23
2.3237e-23
9.75094e-24
3.80828e-24
1.35963e-24
4.23681e-25
9.936e-26
3.46261e-27
-1.59139e-26
-1.40868e-26
-8.87846e-27
-4.83132e-27
-2.40179e-27
-1.11632e-27
-4.89986e-28
-2.03676e-28
-7.99263e-29
-2.93544e-29
-7.85762e-30
0.998871
1.02303
1.04193
0.973194
0.776635
0.5
0.236308
0.0551564
-0.029143
-0.0442024
-0.0286473
-0.0100128
0.000663547
0.0035141
0.00248887
0.000832588
-0.000113498
-0.000321873
-0.000191186
-3.36372e-05
3.90915e-05
4.05942e-05
1.63493e-05
-3.54484e-06
-1.08812e-05
-9.38124e-06
-4.94467e-06
-1.23147e-06
6.9013e-07
1.18285e-06
9.61426e-07
5.62121e-07
2.40466e-07
5.5533e-08
-2.18829e-08
-3.90194e-08
-3.16938e-08
-1.93467e-08
-9.55656e-09
-3.70802e-09
-8.87468e-10
1.69996e-10
4.00361e-10
3.3294e-10
2.08396e-10
1.09347e-10
4.90143e-11
1.81094e-11
4.62403e-12
-1.6347e-13
-1.26528e-12
-1.11709e-12
-7.18537e-13
-3.91114e-13
-1.87574e-13
-7.95151e-14
-2.88861e-14
-7.98931e-15
-6.89811e-16
1.15637e-15
1.18095e-15
7.95794e-16
4.48633e-16
2.24977e-16
1.02337e-16
4.21885e-17
1.54095e-17
4.63772e-18
8.36709e-19
-2.32989e-19
-3.75768e-19
-2.78848e-19
-1.6521e-19
-8.64289e-20
-4.13201e-20
-1.82715e-20
-7.46768e-21
-2.781e-21
-9.06099e-22
-2.27276e-22
-1.62004e-23
3.07423e-23
2.94351e-23
1.91304e-23
1.05918e-23
5.31638e-24
2.47877e-24
1.08388e-24
4.44871e-25
1.70119e-25
5.93675e-26
1.79387e-26
3.93044e-27
-6.2964e-29
-7.90467e-28
-6.53064e-28
-4.01251e-28
-2.15325e-28
-1.05945e-28
-4.73893e-29
0.997793
1.00507
1.03244
1.03887
0.957846
0.763692
0.5
0.246669
0.0663832
-0.0238076
-0.04519
-0.0325535
-0.0134732
-0.000958105
0.00341533
0.00300602
0.00129435
7.3924e-05
-0.000336809
-0.0002678
-8.43582e-05
3.27417e-05
6.03745e-05
3.97152e-05
1.12594e-05
-6.20158e-06
-1.1152e-05
-8.94709e-06
-4.82146e-06
-1.55377e-06
1.80988e-07
7.37728e-07
6.86001e-07
4.44797e-07
2.2252e-07
8.0715e-08
1.12041e-08
-1.32532e-08
-1.61974e-08
-1.18702e-08
-6.85964e-09
-3.28203e-09
-1.26027e-09
-3.16403e-10
3.34283e-11
1.13455e-10
9.74887e-11
6.21049e-11
3.3282e-11
1.54477e-11
6.11528e-12
1.88956e-12
2.70591e-13
-1.98855e-13
-2.43657e-13
-1.74536e-13
-1.01664e-13
-5.18298e-14
-2.36061e-14
-9.54357e-15
-3.28432e-15
-8.23864e-16
-1.41166e-17
1.66273e-16
1.50058e-16
9.67769e-17
5.3263e-17
2.63223e-17
1.18781e-17
4.89037e-18
1.80139e-18
5.59014e-19
1.15853e-19
-1.37817e-20
-3.55452e-20
-2.7977e-20
-1.70085e-20
-9.05792e-21
-4.4032e-21
-1.98461e-21
-8.31829e-22
-3.21668e-22
-1.11945e-22
-3.27458e-23
-6.12804e-24
1.13774e-24
2.15592e-24
1.61461e-24
9.5734e-25
5.03018e-25
2.43517e-25
1.10404e-25
4.71502e-26
1.89413e-26
7.08924e-27
2.41342e-27
7.02829e-28
1.39907e-28
-1.25029e-29
-4.90628e-29
0.999036
0.997843
1.01201
1.03844
1.0343
0.944844
0.753332
0.5
0.255249
0.0762283
-0.0184989
-0.0453983
-0.0357859
-0.016766
-0.00276961
0.00307894
0.0034113
0.00176481
0.000308403
-0.000328846
-0.000358202
-0.000166581
-5.07259e-07
6.84636e-05
6.52426e-05
3.52394e-05
8.25754e-06
-5.96238e-06
-9.43103e-06
-7.44791e-06
-4.16955e-06
-1.60093e-06
-1.8307e-07
3.5326e-07
4.14253e-07
3.00475e-07
1.6898e-07
7.51925e-08
2.34375e-08
9.55664e-10
-5.74613e-09
-5.78939e-09
-3.95775e-09
-2.20199e-09
-1.0329e-09
-3.96891e-10
-1.05771e-10
2.24673e-12
2.86785e-11
2.60222e-11
1.699e-11
9.31676e-12
4.46323e-12
1.86466e-12
6.48318e-13
1.54106e-13
-1.02193e-14
-4.45085e-14
-3.77475e-14
-2.38663e-14
-1.29367e-14
-6.26227e-15
-2.73163e-15
-1.05912e-15
-3.46165e-16
-7.78534e-17
5.45377e-18
2.13886e-17
1.76514e-17
1.09867e-17
5.92727e-18
2.89403e-18
1.29772e-18
5.34065e-19
1.98331e-19
6.32042e-20
1.45035e-20
-2.24925e-22
-3.11185e-21
-2.63857e-21
-1.65144e-21
-8.95917e-22
-4.42569e-22
-2.0294e-22
-8.69008e-23
-3.46269e-23
-1.26411e-23
-4.0599e-24
-1.0132e-24
-7.94592e-26
1.27081e-25
1.23041e-25
8.00352e-26
4.43531e-26
2.23303e-26
1.04779e-26
4.63226e-27
1.93544e-27
7.62747e-28
2.37398e-28
0.999961
0.997493
0.999961
1.01842
1.04211
1.02914
0.933618
0.74475
0.499998
0.262537
0.0849771
-0.0133119
-0.0450447
-0.0384437
-0.0198467
-0.00468047
0.00256576
0.00372756
0.00225392
0.000604289
-0.000281166
-0.000453304
-0.000284594
-7.56476e-05
4.64136e-05
7.75807e-05
5.92041e-05
2.91735e-05
6.6977e-06
-4.25758e-06
-6.86675e-06
-5.50901e-06
-3.22318e-06
-1.40127e-06
-3.49631e-07
9.96916e-08
2.08497e-07
1.75465e-07
1.09905e-07
5.58631e-08
2.26413e-08
6.10008e-09
-4.16478e-10
-2.05999e-09
-1.84652e-09
-1.2029e-09
-6.5215e-10
-3.02608e-10
-1.1726e-10
-3.32932e-11
-1.82894e-12
6.46093e-12
6.38894e-12
4.31152e-12
2.42566e-12
1.19729e-12
5.2296e-13
1.97397e-13
5.86319e-14
8.01259e-15
-6.00456e-15
-7.17162e-15
-5.07879e-15
-2.94942e-15
-1.51303e-15
-7.02142e-16
-2.95223e-16
-1.10271e-16
-3.42969e-17
-6.80951e-18
1.2477e-18
2.5212e-18
1.94603e-18
1.17687e-18
6.24554e-19
3.0196e-19
1.34756e-19
5.54852e-20
2.07727e-20
6.77935e-21
1.6846e-21
9.7596e-23
-2.51204e-22
-2.35258e-22
-1.52336e-22
-8.43087e-23
-4.23221e-23
-1.97225e-23
-8.60663e-24
-3.51611e-24
-1.332e-24
-4.5612e-25
-1.31937e-25
-2.47272e-26
4.19332e-27
8.24893e-27
6.18107e-27
3.66341e-27
1.92302e-27
9.16303e-28
1.00021
0.998989
0.996922
1.00302
1.02396
1.0442
1.02381
0.92377
0.737459
0.499998
0.268852
0.0928399
-0.00829192
-0.0442879
-0.0406283
-0.0227167
-0.0066433
0.00191883
0.0039821
0.00278813
0.000998508
-0.000150785
-0.000517181
-0.000419534
-0.000191999
-1.72668e-05
6.11696e-05
6.96435e-05
4.77831e-05
2.27309e-05
5.69928e-06
-2.33963e-06
-4.38898e-06
-3.66593e-06
-2.24963e-06
-1.07447e-06
-3.62644e-07
-2.84022e-08
8.14257e-08
8.82177e-08
6.23841e-08
3.53697e-08
1.66616e-08
6.25769e-09
1.46394e-09
-2.7763e-10
-6.47502e-10
-5.37922e-10
-3.38858e-10
-1.80612e-10
-8.34506e-11
-3.27758e-11
-9.89807e-12
-1.19097e-12
1.27574e-12
1.44931e-12
1.02216e-12
5.92098e-13
3.00968e-13
1.36618e-13
5.4863e-14
1.85651e-14
4.38741e-15
-1.94794e-16
-1.14088e-15
-9.73382e-16
-6.16773e-16
-3.36475e-16
-1.65211e-16
-7.4023e-17
-3.01521e-17
-1.08902e-17
-3.22842e-18
-5.54253e-19
1.85982e-19
2.76901e-19
2.03035e-19
1.19941e-19
6.27978e-20
3.01232e-20
1.3397e-20
5.52338e-21
2.08474e-21
6.95285e-22
1.84303e-22
2.0836e-23
-1.84399e-23
-1.98939e-23
-1.34194e-23
-7.59266e-24
-3.87509e-24
-1.8342e-24
-8.14335e-25
-3.39924e-25
-1.32692e-25
-4.76474e-26
-1.51102e-26
-3.74386e-27
-3.23147e-28
6.73722e-28
1.00013
1
0.997981
0.997159
1.00648
1.02865
1.04519
1.0185
0.915023
0.73115
0.500001
0.274408
0.0999699
-0.0034646
-0.0432562
-0.0424539
-0.0254306
-0.00867535
0.00112746
0.00416579
0.00337371
0.00152288
0.000114396
-0.000493724
-0.000527254
-0.000325165
-0.000116637
1.00801e-05
5.60642e-05
5.42009e-05
3.52124e-05
1.66965e-05
4.74231e-06
-8.80275e-07
-2.47717e-06
-2.21248e-06
-1.43052e-06
-7.37598e-07
-2.9525e-07
-7.07799e-08
1.70666e-08
3.6956e-08
3.09884e-08
1.96108e-08
1.03425e-08
4.5948e-09
1.62227e-09
3.32364e-10
-1.05915e-10
-1.84174e-10
-1.45452e-10
-8.9551e-11
-4.72401e-11
-2.18392e-11
-8.72031e-12
-2.78857e-12
-4.88034e-13
2.0895e-13
3.03694e-13
2.27393e-13
1.36292e-13
7.13829e-14
3.35495e-14
1.41585e-14
5.23101e-15
1.55142e-15
2.36957e-16
-1.26984e-16
-1.63985e-16
-1.17943e-16
-6.9195e-17
-3.59691e-17
-1.70407e-17
-7.41176e-18
-2.93681e-18
-1.02894e-18
-2.91185e-19
-4.20288e-20
2.31116e-20
2.86775e-20
2.02002e-20
1.1707e-20
6.06224e-21
2.88992e-21
1.28233e-21
5.29743e-22
2.0158e-22
6.85808e-23
1.91827e-23
2.99261e-24
-1.18648e-24
-1.59681e-24
-1.13299e-24
-6.57263e-25
-3.41361e-25
-1.64089e-25
-7.40356e-26
-3.15013e-26
-1.26311e-26
-4.01439e-27
1.00003
1.00026
0.999477
0.997178
0.998023
1.01001
1.03255
1.04539
1.01332
0.907173
0.725599
0.499994
0.279351
0.106489
0.00116848
-0.0420434
-0.0440318
-0.0280809
-0.0108564
0.000111297
0.00420304
0.00395965
0.00216645
0.000542419
-0.000331642
-0.000553391
-0.000432665
-0.000226889
-6.6683e-05
1.72531e-05
4.27403e-05
3.79857e-05
2.40432e-05
1.15647e-05
3.71051e-06
-3.38891e-08
-1.2242e-06
-1.21569e-06
-8.34565e-07
-4.60265e-07
-2.06627e-07
-6.88238e-08
-8.13858e-09
1.14045e-08
1.32381e-08
9.60051e-09
5.62165e-09
2.80793e-09
1.19223e-09
4.00964e-10
7.32127e-11
-3.23394e-11
-4.83413e-11
-3.69311e-11
-2.24027e-11
-1.17566e-11
-5.45724e-12
-2.2189e-12
-7.47179e-13
-1.64582e-13
2.28588e-14
5.83799e-14
4.75595e-14
2.97018e-14
1.60566e-14
7.79774e-15
3.43155e-15
1.35274e-15
4.56868e-16
1.12987e-16
1.81786e-18
-2.2583e-17
-2.0335e-17
-1.31453e-17
-7.28383e-18
-3.64296e-18
-1.67529e-18
-7.10396e-19
-2.74756e-19
-9.36509e-20
-2.5341e-20
-2.95746e-21
2.57153e-21
2.8258e-21
1.92821e-21
1.10019e-21
5.64632e-22
2.67871e-22
1.18704e-22
4.91641e-23
1.88603e-23
6.53546e-24
1.91309e-24
3.64274e-25
-5.98424e-26
-1.2142e-25
-9.18957e-26
-5.48761e-26
-2.89894e-26
-1.37945e-26
0.999982
1.00016
1.00019
0.998815
0.996676
0.999336
1.01347
1.03578
1.04505
1.00831
0.900053
0.720631
0.499963
0.283804
0.112528
0.00566254
-0.0406703
-0.045422
-0.0307452
-0.0132853
-0.00125373
0.00395849
0.00442747
0.00285311
0.00110853
-1.35898e-05
-0.000457868
-0.000470908
-0.00031339
-0.000147836
-3.74012e-05
1.49176e-05
2.87483e-05
2.44674e-05
1.53551e-05
7.56087e-06
2.69669e-06
3.24059e-07
-5.11153e-07
-6.0723e-07
-4.48635e-07
-2.63829e-07
-1.29217e-07
-5.11888e-08
-1.36121e-08
9.16965e-10
4.56045e-09
4.11232e-09
2.71146e-09
1.4997e-09
7.18688e-10
2.94805e-10
9.56479e-11
1.60342e-11
-8.59541e-12
-1.18621e-11
-8.88099e-12
-5.34185e-12
-2.8e-12
-1.30836e-12
-5.42051e-13
-1.9112e-13
-4.92504e-14
-1.12328e-15
1.00983e-14
9.34211e-15
6.14245e-15
3.43813e-15
1.72421e-15
7.87401e-16
3.26704e-16
1.20324e-16
3.65815e-17
6.69691e-18
-1.84728e-18
-3.04079e-18
-2.28667e-18
-1.3724e-18
-7.27449e-19
-3.52513e-19
-1.5809e-19
-6.55875e-20
-2.48336e-20
-8.25701e-21
-2.14055e-21
-1.90826e-22
2.64558e-22
2.66748e-22
1.77464e-22
9.99782e-23
5.09422e-23
2.40805e-23
1.06658e-23
4.43082e-24
1.71341e-24
6.03901e-25
1.83812e-25
4.01622e-26
-9.07737e-28
-1.15809e-26
0.999983
1.00003
1.00026
0.999958
0.998133
0.996485
1.00095
1.01676
1.03845
1.04431
1.0035
0.893522
0.716114
0.499907
0.287896
0.118265
0.0101675
-0.0390379
-0.0465712
-0.0334151
-0.016008
-0.00307243
0.00328421
0.00461962
0.00345135
0.00172936
0.000427859
-0.000234884
-0.000413932
-0.000345933
-0.000208591
-9.19229e-05
-2.13235e-05
9.95548e-06
1.75382e-05
1.4667e-05
9.23339e-06
4.67479e-06
1.82142e-06
3.9054e-07
-1.59176e-07
-2.72936e-07
-2.22456e-07
-1.39869e-07
-7.37135e-08
-3.27206e-08
-1.14462e-08
-2.18328e-09
9.53444e-10
1.48031e-09
1.15633e-09
7.12771e-10
3.7764e-10
1.75353e-10
7.01243e-11
2.22183e-11
3.56165e-12
-2.05754e-12
-2.74585e-12
-2.03578e-12
-1.22055e-12
-6.41075e-13
-3.02111e-13
-1.27542e-13
-4.684e-14
-1.35268e-14
-1.68931e-15
1.49413e-15
1.71442e-15
1.2061e-15
7.02541e-16
3.64093e-16
1.72061e-16
7.45095e-17
2.92444e-17
1.00222e-17
2.66191e-18
2.36685e-19
-3.49019e-19
-3.55627e-19
-2.39236e-19
-1.35872e-19
-6.95035e-20
-3.28053e-20
-1.44006e-20
-5.86246e-21
-2.17873e-21
-7.08483e-22
-1.76401e-22
-1.09728e-23
2.56205e-23
2.42527e-23
1.58118e-23
8.81678e-24
4.46693e-24
2.10605e-24
9.32991e-25
3.88901e-25
1.51949e-25
4.4923e-26
0.999994
0.999978
1.00012
1.0003
0.999599
0.997506
0.996583
1.00278
1.01985
1.04062
1.04327
0.998874
0.887479
0.711946
0.499833
0.29177
0.123929
0.014936
-0.036911
-0.0472801
-0.0359441
-0.0189525
-0.00536029
0.00208579
0.00439433
0.00381309
0.00228434
0.000916114
8.19743e-05
-0.000264176
-0.00031053
-0.000230489
-0.000130421
-5.52502e-05
-1.25844e-05
5.56762e-06
9.84838e-06
8.24965e-06
5.25389e-06
2.7404e-06
1.14909e-06
3.26852e-07
-1.32345e-08
-1.07298e-07
-1.01371e-07
-6.88168e-08
-3.88211e-08
-1.87791e-08
-7.63802e-09
-2.33679e-09
-2.29015e-10
3.86672e-10
4.24044e-10
3.01576e-10
1.76879e-10
9.06898e-11
4.11228e-11
1.61572e-11
5.05668e-12
8.1082e-13
-4.50406e-13
-6.0338e-13
-4.4702e-13
-2.68349e-13
-1.41613e-13
-6.74005e-14
-2.89871e-14
-1.10369e-14
-3.47491e-15
-6.76417e-16
1.58907e-16
2.90229e-16
2.24484e-16
1.3716e-16
7.36221e-17
3.59607e-17
1.61679e-17
6.67236e-18
2.47875e-18
7.83389e-19
1.71244e-19
-1.24846e-20
-4.63528e-20
-3.79696e-20
-2.3652e-20
-1.28691e-20
-6.39374e-21
-2.95148e-21
-1.27204e-21
-5.09424e-22
-1.86265e-22
-5.93891e-23
-1.42468e-23
-5.213e-25
2.36202e-24
2.13298e-24
1.36841e-24
7.56854e-25
3.81406e-25
1.70856e-25
1
0.999977
1.00001
1.00021
1.00024
0.999156
0.99699
0.996947
1.00471
1.02269
1.04238
1.04205
0.994478
0.881838
0.707998
0.499701
0.295536
0.129761
0.0202785
-0.0339584
-0.0472274
-0.0380483
-0.021905
-0.00800164
0.000374964
0.00368044
0.00382285
0.00265345
0.00135453
0.000430779
-5.10853e-05
-0.00021359
-0.000207574
-0.000142881
-7.76289e-05
-3.23188e-05
-7.65204e-06
2.64043e-06
5.13006e-06
4.37746e-06
2.83966e-06
1.52733e-06
6.81193e-07
2.30232e-07
3.16584e-08
-3.39639e-08
-4.19487e-08
-3.1412e-08
-1.90009e-08
-9.88513e-09
-4.45317e-09
-1.66919e-09
-4.37326e-10
1.19358e-11
1.21649e-10
1.11303e-10
7.4101e-11
4.18579e-11
2.09303e-11
9.32677e-12
3.6242e-12
1.13183e-12
1.88942e-13
-9.05556e-14
-1.264e-13
-9.43762e-14
-5.69579e-14
-3.02702e-14
-1.45665e-14
-6.37914e-15
-2.50814e-15
-8.45033e-16
-2.07158e-16
-9.91065e-19
4.4022e-17
3.94092e-17
2.5579e-17
1.42787e-17
7.21075e-18
3.35573e-18
1.44421e-18
5.69578e-19
1.99901e-19
5.73375e-20
8.97343e-21
-3.93391e-21
-5.27116e-21
-3.79394e-21
-2.23284e-21
-1.17384e-21
-5.6918e-22
-2.57816e-22
-1.0937e-22
-4.31828e-23
-1.55679e-23
-4.87937e-24
-1.13219e-24
-1.47396e-26
2.06194e-25
2.05894e-25
1
0.999991
0.999973
1.00006
1.00028
1.00009
0.998691
0.996632
0.997511
1.00662
1.02524
1.04387
1.04084
0.990346
0.876425
0.704015
0.499344
0.299209
0.135936
0.0264733
-0.0298461
-0.04605
-0.0393642
-0.0245424
-0.0107561
-0.00171505
0.00250799
0.00343543
0.00275404
0.00165644
0.000741835
0.000180135
-7.79425e-05
-0.000146945
-0.000127763
-8.36696e-05
-4.43563e-05
-1.84486e-05
-4.70279e-06
1.01453e-06
2.48531e-06
2.19865e-06
1.46208e-06
8.11499e-07
3.81611e-07
1.45106e-07
3.51911e-08
-5.8394e-09
-1.52985e-08
-1.32273e-08
-8.66434e-09
-4.82693e-09
-2.35491e-09
-9.97573e-10
-3.45511e-10
-7.47019e-11
1.59767e-11
3.34494e-11
2.73396e-11
1.73401e-11
9.51713e-12
4.66929e-12
2.05535e-12
7.94291e-13
2.49639e-13
4.4631e-14
-1.66189e-14
-2.53069e-14
-1.921e-14
-1.17014e-14
-6.27587e-15
-3.05632e-15
-1.36228e-15
-5.51261e-16
-1.96155e-16
-5.5575e-17
-7.19487e-18
5.5365e-18
6.45602e-18
4.5467e-18
2.65756e-18
1.39009e-18
6.68729e-19
2.9862e-19
1.23512e-19
4.66013e-20
1.53826e-20
3.89533e-21
2.59347e-22
-5.66391e-22
-5.45665e-22
-3.60023e-22
-2.02786e-22
-1.03646e-22
-4.92344e-23
-2.1942e-23
-9.18189e-24
-3.58102e-24
-1.28099e-24
-2.91382e-25
1
0.999999
0.999981
0.999989
1.00013
1.0003
0.999891
0.998281
0.996412
0.998125
1.0084
1.02763
1.04537
1.03985
0.986368
0.870838
0.699516
0.49841
0.302641
0.142482
0.0336629
-0.0243477
-0.0434499
-0.0395427
-0.0265069
-0.0133096
-0.00395574
0.00100423
0.00268831
0.00256234
0.00176882
0.000958265
0.000383454
6.61153e-05
-6.46471e-05
-9.10914e-05
-7.37614e-05
-4.674e-05
-2.44604e-05
-1.02806e-05
-2.86198e-06
2.50075e-07
1.1167e-06
1.04685e-06
7.18587e-07
4.12022e-07
2.03016e-07
8.42012e-08
2.62885e-08
2.63869e-09
-4.51911e-09
-5.06103e-09
-3.67343e-09
-2.19846e-09
-1.15011e-09
-5.32163e-10
-2.13481e-10
-6.83761e-11
-1.14376e-11
6.04423e-12
8.41472e-12
6.36901e-12
3.89469e-12
2.09087e-12
1.0114e-12
4.41658e-13
1.70523e-13
5.42966e-14
1.05547e-14
-2.72011e-15
-4.84671e-15
-3.77707e-15
-2.33143e-15
-1.26451e-15
-6.23738e-16
-2.82846e-16
-1.17473e-16
-4.37295e-17
-1.36968e-17
-2.82142e-18
4.13229e-19
9.64678e-19
7.66388e-19
4.74275e-19
2.57916e-19
1.28284e-19
5.9268e-20
2.55181e-20
1.01691e-20
3.66934e-21
1.13052e-21
2.40376e-22
-1.94966e-23
-6.54203e-23
-5.28861e-23
-3.27604e-23
-1.78177e-23
-8.89576e-24
-4.15393e-24
-1.67116e-24
1
1
0.999995
0.999982
1.00001
1.00016
1.00028
0.999718
0.997938
0.99618
0.998617
1.01013
1.03023
1.04728
1.03909
0.982092
0.864334
0.693758
0.496345
0.305495
0.149219
0.0417764
-0.0174346
-0.0392897
-0.0383437
-0.0274927
-0.0153476
-0.00607764
-0.000639587
0.00168802
0.00211465
0.00168231
0.0010493
0.000524515
0.000190399
2.04547e-05
-4.32605e-05
-5.23007e-05
-4.04101e-05
-2.50736e-05
-1.30631e-05
-5.58904e-06
-1.69981e-06
-4.14223e-08
4.60419e-07
4.72255e-07
3.37503e-07
2.00295e-07
1.0298e-07
4.57157e-08
1.65687e-08
3.80088e-09
-7.25358e-10
-1.69515e-09
-1.43573e-09
-9.3466e-10
-5.23466e-10
-2.60461e-10
-1.15256e-10
-4.40305e-11
-1.30409e-11
-1.49163e-12
1.75132e-12
1.98243e-12
1.42012e-12
8.44555e-13
4.4581e-13
2.13452e-13
9.27908e-14
3.59255e-14
1.16451e-14
2.47228e-15
-3.71186e-16
-8.87013e-16
-7.18187e-16
-4.51187e-16
-2.47991e-16
-1.24007e-16
-5.71919e-17
-2.43249e-17
-9.40629e-18
-3.17302e-18
-8.18338e-19
-5.41207e-20
1.24431e-19
1.21249e-19
8.09423e-20
4.60563e-20
2.37273e-20
1.13282e-20
5.05441e-21
2.10534e-21
8.09519e-22
2.7888e-22
7.92433e-23
1.2748e-23
-4.83206e-24
-6.74219e-24
-4.85531e-24
-2.93767e-24
1
0.999999
1
0.999998
0.999981
1.00001
1.00019
1.00032
0.999605
0.997507
0.99571
0.999001
1.01219
1.03355
1.04978
1.03815
0.9766
0.855827
0.685786
0.492436
0.307257
0.155755
0.0505074
-0.00931304
-0.0336441
-0.0357009
-0.0273179
-0.016625
-0.00783152
-0.0022153
0.000579212
0.00149161
0.00142718
0.00101355
0.000587135
0.000275651
9.22231e-05
4.72118e-06
-2.55643e-05
-2.82528e-05
-2.1172e-05
-1.29767e-05
-6.77177e-06
-2.96189e-06
-9.77532e-07
-1.13387e-07
1.696e-07
2.01208e-07
1.51495e-07
9.33534e-08
4.99663e-08
2.34604e-08
9.40798e-09
2.88696e-09
3.16244e-10
-4.45035e-10
-5.0651e-10
-3.69198e-10
-2.22774e-10
-1.18531e-10
-5.66102e-11
-2.41145e-11
-8.81622e-12
-2.41471e-12
-1.38464e-13
4.44386e-13
4.4351e-13
3.05083e-13
1.7761e-13
9.25689e-14
4.40114e-14
1.91005e-14
7.43686e-15
2.46178e-15
5.69353e-16
-3.19875e-17
-1.54573e-16
-1.32105e-16
-8.48963e-17
-4.73964e-17
-2.40493e-17
-1.12785e-17
-4.90367e-18
-1.9594e-18
-7.00062e-19
-2.0694e-19
-3.60048e-20
1.14886e-20
1.76301e-20
1.31374e-20
7.90485e-21
4.23385e-21
2.08965e-21
9.63821e-22
4.16971e-22
1.68425e-22
6.25228e-23
2.0498e-23
5.33312e-24
-3.31941e-25
1
0.999998
1
1.00001
0.999998
0.999948
1
1.00031
1.00047
0.999395
0.996707
0.994945
0.999689
1.01527
1.038
1.05255
1.03602
0.968515
0.844
0.674553
0.4859
0.307304
0.161535
0.0593512
-0.000402208
-0.0267983
-0.0317392
-0.0259588
-0.0170123
-0.00903709
-0.0035424
-0.000490676
0.000794015
0.00105975
0.000873693
0.000573351
0.000314213
0.000140595
4.41606e-05
3.85996e-07
-1.38334e-05
-1.45013e-05
-1.06658e-05
-6.50085e-06
-3.41297e-06
-1.5292e-06
-5.42614e-07
-1.02758e-07
5.1935e-08
8.03573e-08
6.49041e-08
4.17415e-08
2.32448e-08
1.14572e-08
4.95325e-09
1.78129e-09
4.28996e-10
-4.60939e-11
-1.52913e-10
-1.33709e-10
-8.84827e-11
-5.04514e-11
-2.57679e-11
-1.18958e-11
-4.90486e-12
-1.72423e-12
-4.37243e-13
1.34714e-15
1.0356e-13
9.50871e-14
6.34597e-14
3.63509e-14
1.87698e-14
8.88495e-15
3.85841e-15
1.51403e-15
5.12733e-16
1.28368e-16
2.93542e-18
-2.54515e-17
-2.3493e-17
-1.55403e-17
-8.83577e-18
-4.55443e-18
-2.17194e-18
-9.63983e-19
-3.96424e-19
-1.48334e-19
-4.81184e-20
-1.15311e-20
-1.63459e-22
2.24398e-21
2.00627e-21
1.29983e-21
7.28498e-22
3.72438e-22
1.77433e-22
7.94267e-23
3.3491e-23
1.12639e-23
1
0.999998
0.999997
1.00001
1.00002
0.999956
0.999886
1.00008
1.00059
1.00058
0.998763
0.995394
0.994269
1.00147
1.01997
1.0434
1.05453
1.03105
0.956181
0.827501
0.659077
0.476007
0.305
0.165935
0.0676887
0.00873551
-0.0191976
-0.0267485
-0.0235459
-0.0165083
-0.00960845
-0.00449837
-0.00140065
0.000118944
0.000645606
0.000666531
0.000498824
0.000308972
0.000162393
7.01479e-05
2.11262e-05
-3.16993e-07
-6.97887e-06
-7.11774e-06
-5.18628e-06
-3.16002e-06
-1.6744e-06
-7.69014e-07
-2.90614e-07
-7.20444e-08
9.80648e-09
2.9614e-08
2.64502e-08
1.78998e-08
1.03841e-08
5.34946e-09
2.45563e-09
9.79427e-10
3.09835e-10
4.7337e-11
-3.28859e-11
-4.2996e-11
-3.25139e-11
-2.00928e-11
-1.09635e-11
-5.41644e-12
-2.43064e-12
-9.74796e-13
-3.31091e-13
-7.80041e-14
5.05275e-15
2.26804e-14
1.96615e-14
1.28294e-14
7.26069e-15
3.72467e-15
1.75923e-15
7.65857e-16
3.03343e-16
1.05171e-16
2.82799e-17
2.49505e-18
-3.8985e-18
-4.03186e-18
-2.76752e-18
-1.60765e-18
-8.42965e-19
-4.08864e-19
-1.85061e-19
-7.80852e-20
-3.03589e-20
-1.05425e-20
-2.99564e-21
-4.57955e-22
2.14373e-22
2.8215e-22
2.03493e-22
1.20655e-22
6.41002e-23
3.00558e-23
1
0.999999
0.999995
1.00001
1.00003
0.999988
0.999869
0.999897
1.00036
1.00093
1.00031
0.997468
0.993877
0.994531
1.00515
1.02632
1.04873
1.05389
1.02128
0.937934
0.80517
0.638602
0.462192
0.299807
0.168364
0.0748914
0.0174893
-0.0113699
-0.0211255
-0.0203276
-0.0152256
-0.00955495
-0.00503051
-0.00207317
-0.000457743
0.000244777
0.000432271
0.000386231
0.000270019
0.000160176
8.16138e-05
3.44259e-05
1.01646e-05
-1.77581e-07
-3.31372e-06
-3.35524e-06
-2.44086e-06
-1.49316e-06
-8.00382e-07
-3.76735e-07
-1.50332e-07
-4.43295e-08
-2.40061e-09
9.72465e-09
1.01843e-08
7.34967e-09
4.45735e-09
2.39543e-09
1.15693e-09
4.97597e-10
1.82517e-10
4.88527e-11
9.01416e-13
-1.1227e-11
-1.08172e-11
-7.44492e-12
-4.37055e-12
-2.30252e-12
-1.10689e-12
-4.85121e-13
-1.90078e-13
-6.26999e-14
-1.38172e-14
1.71275e-15
4.72941e-15
3.93911e-15
2.5283e-15
1.41849e-15
7.24631e-16
3.4212e-16
1.49523e-16
5.98434e-17
2.12401e-17
6.0847e-18
8.63816e-19
-5.36963e-19
-6.65351e-19
-4.79225e-19
-2.85566e-19
-1.52579e-19
-7.53049e-20
-3.47361e-20
-1.50037e-20
-6.02671e-21
-2.20597e-21
-6.98392e-22
-1.60368e-22
2.34729e-24
3.43613e-23
3.3189e-23
1
0.999999
0.999995
1
1.00003
1.00001
0.999903
0.999827
1.00011
1.00077
1.00098
0.999347
0.995718
0.992997
0.996693
1.011
1.03342
1.05205
1.04835
1.00468
0.912398
0.776233
0.612717
0.444156
0.291372
0.168367
0.0804197
0.0252939
-0.00384096
-0.0153048
-0.016618
-0.0133552
-0.00896309
-0.00515109
-0.00247821
-0.000889975
-9.78659e-05
0.000206076
0.000258989
0.00021064
0.000140077
8.04367e-05
4.00809e-05
1.66766e-05
4.92968e-06
7.36642e-10
-1.48729e-06
-1.52307e-06
-1.11402e-06
-6.86752e-07
-3.73075e-07
-1.79862e-07
-7.52328e-08
-2.50543e-08
-4.23823e-09
2.58398e-09
3.65632e-09
2.87917e-09
1.83765e-09
1.03064e-09
5.20998e-10
2.37846e-10
9.61033e-11
3.21426e-11
6.71546e-12
-1.5386e-12
-3.08519e-12
-2.52683e-12
-1.62685e-12
-9.17655e-13
-4.69883e-13
-2.20851e-13
-9.4919e-14
-3.64865e-14
-1.17533e-14
-2.44911e-15
4.2923e-16
9.46674e-16
7.67308e-16
4.86832e-16
2.71546e-16
1.38414e-16
6.54215e-17
2.87376e-17
1.16299e-17
4.22321e-18
1.27911e-18
2.38176e-19
-6.06889e-20
-1.04891e-19
-8.0578e-20
-4.95148e-20
-2.70184e-20
-1.35793e-20
-6.38132e-21
-2.81678e-21
-1.16409e-21
-4.44498e-22
-1.52746e-22
-2.81706e-23
1
0.999999
0.999996
1
1.00002
1.00002
0.999942
0.99984
0.999958
1.00048
1.00099
1.00039
0.997784
0.994289
0.993807
1.00125
1.01829
1.03931
1.05081
1.03553
0.9796
0.878728
0.740433
0.581431
0.421919
0.279595
0.16569
0.0838966
0.0317043
0.00293654
-0.00969328
-0.0127421
-0.0111248
-0.00796824
-0.00492142
-0.00262712
-0.00116185
-0.000356469
1.31302e-05
0.000136708
0.000143854
0.000109537
7.01616e-05
3.93233e-05
1.93005e-05
7.98933e-06
2.406e-06
8.00818e-08
-6.31096e-07
-6.66732e-07
-4.93699e-07
-3.07748e-07
-1.69686e-07
-8.37297e-08
-3.64903e-08
-1.32993e-08
-3.26953e-09
3.37458e-10
1.19077e-09
1.06872e-09
7.26301e-10
4.26355e-10
2.25067e-10
1.08061e-10
4.68727e-11
1.77951e-11
5.34462e-12
7.09795e-13
-6.24564e-13
-7.56491e-13
-5.58891e-13
-3.42313e-13
-1.8704e-13
-9.35691e-14
-4.3169e-14
-1.82597e-14
-6.91326e-15
-2.18739e-15
-4.37501e-16
9.29996e-17
1.82878e-16
1.45703e-16
9.17628e-17
5.10118e-17
2.59891e-17
1.23129e-17
5.44103e-18
2.22738e-18
8.26781e-19
2.62938e-19
5.85862e-20
-3.60157e-21
-1.56087e-20
-1.31234e-20
-8.37594e-21
-4.68112e-21
-2.39856e-21
-1.14831e-21
-5.18284e-22
-1.94177e-22
1
1
0.999997
1
1.00002
1.00002
0.999966
0.999883
0.999921
1.00025
1.00073
1.00067
0.999172
0.996306
0.994249
0.99697
1.00769
1.02515
1.04128
1.04229
1.01343
0.945036
0.836748
0.69807
0.545174