/*--------------------------------*- C++ -*----------------------------------*\
  =========                 |
  \\      /  F ield         | OpenFOAM: The Open Source CFD Toolbox
   \\    /   O peration     | Website:  https://openfoam.org
    \\  /    A nd           | Version:  7
     \\/     M anipulation  |
\*---------------------------------------------------------------------------*/
FoamFile
{
    version     2.0;
    format      ascii;
    class       surfaceScalarField;
    location    "0.45";
    object      phi;
}
// * * * * * * * * * * * * * * * * * * * * * * * * * * * * * * * * * * * * * //

dimensions      [0 3 -1 0 0 0 0];

internalField   nonuniform List<scalar> 
35329
(
0.002
0.00123097
-0.000230972
-0.000387235
0.00138723
0.000843737
-0.000407804
0.0014078
0.000979431
-0.000374625
0.00137463
0.00103318
-0.000393333
0.00139333
0.000981292
-0.000362515
0.00136252
0.00103082
-0.000337275
0.00133728
0.00102524
-0.000348329
0.00134833
0.000988946
-0.000354104
0.0013541
0.000994225
-0.000368204
0.0013682
0.0009859
-0.00035314
0.00135314
0.00101506
-0.000376735
0.00137674
0.000976405
-0.000372353
0.00137235
0.00100438
-0.000322586
0.00132259
0.00104977
-0.000358367
0.00135837
0.000964219
-0.000334087
0.00133409
0.00102428
-0.000337821
0.00133782
0.000996266
-0.000354938
0.00135494
0.000982883
-0.000312742
0.00131274
0.0010422
-0.000326981
0.00132698
0.000985761
-0.000334878
0.00133488
0.000992103
-0.000338501
0.0013385
0.000996377
-0.000340953
0.00134095
0.000997548
-0.000334335
0.00133434
0.00100662
-0.00034357
0.00134357
0.000990765
-0.000348153
0.00134815
0.000995417
-0.000357381
0.00135738
0.000990772
-0.000331674
0.00133167
0.00102571
-0.000333506
0.00133351
0.000998168
-0.000354605
0.0013546
0.000978901
-0.000347806
0.00134781
0.0010068
-0.000365927
0.00136593
0.000981879
-0.000337559
0.00133756
0.00102837
-0.000341184
0.00134118
0.000996375
-0.000342421
0.00134242
0.000998763
-0.00031325
0.00131325
0.00102917
-0.000326395
0.00132639
0.000986855
-0.000342473
0.00134247
0.000983922
-0.000337845
0.00133785
0.00100463
-0.000341179
0.00134118
0.000996666
-0.00033503
0.00133503
0.00100615
-0.000343744
0.00134374
0.000991286
-0.00033499
0.00133499
0.00100875
-0.00034661
0.00134661
0.00098838
-0.000348731
0.00134873
0.000997879
-0.000343601
0.0013436
0.00100513
-0.000369177
0.00136918
0.000974424
-0.000330256
0.00133026
0.00103892
-0.000369057
0.00136906
0.000961199
-0.000336834
0.00133683
0.00103222
-0.00034253
0.00134253
0.000994304
-0.00035498
0.00135498
0.00098755
-0.00033168
0.00133168
0.0010233
-0.000340859
0.00134086
0.000990821
-0.00034877
0.00134877
0.000992089
-0.000343527
0.00134353
0.00100524
-0.000340257
0.00134026
0.00100327
-0.000332364
0.00133236
0.00100789
-0.000340323
0.00134032
0.000992041
-0.000331705
0.0013317
0.00100862
-0.000343925
0.00134393
0.00098778
-0.000346854
0.00134685
0.000997071
-0.000341768
0.00134177
0.00100509
-0.000361935
0.00136194
0.000979833
-0.000355626
0.00135563
0.00100631
-0.000370323
0.00137032
0.000985303
-0.000345989
0.00134599
0.00102433
-0.000342472
0.00134247
0.00100352
-0.000363323
0.00136332
0.000979149
-0.000330552
0.00133055
0.00103277
-0.000340899
0.0013409
0.000989653
-0.000349825
0.00134983
0.000991074
-0.000348808
0.00134881
0.00100102
-0.000358514
0.00135851
0.000990294
-0.000314539
0.00131454
0.00104398
-0.000328601
0.0013286
0.000985938
-0.000329227
0.00132923
0.000999374
-0.000345152
0.00134515
0.000984075
-0.000348542
0.00134854
0.00099661
-0.000340084
0.00134008
0.00100846
-0.000354904
0.0013549
0.00098518
-0.000343764
0.00134376
0.00101114
-0.000355997
0.001356
0.000987767
-0.000327108
0.00132711
0.00102889
-0.00034524
0.00134524
0.000981868
-0.000364748
0.00136475
0.000980492
-0.00032898
0.00132898
0.00103577
-0.000338647
0.00133865
0.000990333
-0.000334875
0.00133488
0.00100377
-0.000349459
0.00134946
0.000985416
-0.000362843
0.00136284
0.000986616
-0.000324431
0.00132443
0.00103841
-0.000344572
0.00134457
0.000979859
-0.000344186
0.00134419
0.00100039
-0.000383722
0.00138372
0.000960464
-0.000421343
0.00142134
0.000962379
-0.000450098
0.0014501
0.000971245
-0.000558433
0.00155843
0.000891665
0.00172658
-0.000726578
0.000726578
0.000831855
0.00145105
-0.000451048
-0.000350178
0.00135018
-0.00040059
0.00140059
-0.000414314
0.00141431
-0.000359547
0.00135955
0.00134247
-0.000342474
0.00139322
-0.000393219
0.00136511
-0.000365113
0.00134272
-0.000342722
0.0013806
-0.000380597
0.00139536
-0.000395364
0.00136162
-0.000361623
0.00134403
-0.000344029
0.00139438
-0.000394375
0.00135423
-0.000354231
0.00133822
-0.00033822
0.00140341
-0.00040341
0.00137509
-0.00037509
0.00135299
-0.00035299
0.00135386
-0.000353855
0.00138593
-0.000385931
0.00134788
-0.000347884
0.001333
-0.000332997
0.0013894
-0.000389398
0.00139815
-0.000398152
0.00137426
-0.000374258
0.00135403
-0.000354032
0.00140009
-0.000400093
0.00136252
-0.000362524
0.00134293
-0.000342934
0.00141146
-0.000411456
0.00137687
-0.000376866
0.00135035
-0.000350353
0.00135721
-0.000357209
0.00138873
-0.00038873
0.00134971
-0.00034971
0.00135027
-0.000350266
0.00139695
-0.000396949
0.00136415
-0.00036415
0.00134423
-0.000344229
0.00136902
-0.000369021
0.00140237
-0.000402372
0.00135875
-0.000358745
0.00135524
-0.000355239
0.0014097
-0.000409698
0.00135855
-0.000358549
0.00134486
-0.000344865
0.00136947
-0.00036947
0.00142979
-0.000429792
8.67362e-19
-0.00122535
0.00022535
0.00031511
-0.00131511
0.00036488
-0.00136488
0.00035767
-0.00135767
0.00033128
-0.00133128
0.0003404
-0.0013404
0.0003673
-0.0013673
0.0003172
-0.0013172
0.0003532
-0.0013532
0.0003316
-0.0013316
0.0003563
-0.0013563
0.0003442
-0.0013442
0.0003572
-0.0013572
0.0003349
-0.0013349
0.0003426
-0.0013426
0.0003428
-0.0013428
0.0003701
-0.0013701
0.000321
-0.001321
0.0003483
-0.0013483
0.0003517
-0.0013517
0.0003554
-0.0013554
0.0003373
-0.0013373
0.0003478
-0.0013478
0.0003866
-0.0013866
0.0003176
-0.0013176
0.0003641
-0.0013641
0.0003388
-0.0013388
0.0003562
-0.0013562
0.0003419
-0.0013419
0.000359
-0.001359
0.0003383
-0.0013383
0.0003458
-0.0013458
0.0003414
-0.0013414
0.0003741
-0.0013741
0.0003478
-0.0013478
0.0003475
-0.0013475
0.0003538
-0.0013538
0.0003322
-0.0013322
0.0003338
-0.0013338
0.0003295
-0.0013295
0.0003841
-0.0013841
0.0003406
-0.0013406
0.0003571
-0.0013571
0.0003359
-0.0013359
0.0003746
-0.0013746
0.0003416
-0.0013416
0.0004218
-0.0014218
0.0004754
-0.0014754
0.0003868
-0.0013868
-0.002
-0.00161898
0.00061898
-0.000892402
-0.00164981
0.00064981
-0.00103083
-0.00164964
0.00064964
-0.00099983
-0.00158094
0.00058094
-0.0009313
-0.0015875
0.0005875
-0.00100656
-0.00165399
0.00065399
-0.00106649
-0.00160336
0.00060336
-0.00094937
-0.00160698
0.00060698
-0.00100362
-0.00157803
0.00057803
-0.00097105
-0.0016032
0.0006032
-0.00102517
-0.0016093
0.0006093
-0.0010061
-0.0015639
0.0005639
-0.0009546
-0.0016092
0.0006092
-0.0010453
-0.0016039
0.0006039
-0.0009947
-0.0015896
0.0005896
-0.0009857
-0.0016026
0.0006026
-0.001013
-0.0016022
0.0006022
-0.0009996
-0.0015606
0.0005606
-0.0009584
-0.0016134
0.0006134
-0.0010528
-0.0016208
0.0006208
-0.0010074
-0.0015795
0.0005795
-0.0009587
-0.0015893
0.0005893
-0.0010098
-0.0016484
0.0006484
-0.0010591
-0.0016016
0.0006016
-0.0009532
-0.0016061
0.0006061
-0.0010045
-0.0015784
0.0005784
-0.0009723
-0.0016028
0.0006028
-0.0010244
-0.0015964
0.0005964
-0.0009936
-0.0015632
0.0005632
-0.0009668
-0.0016083
0.0006083
-0.0010451
-0.0016037
0.0006037
-0.0009954
-0.0015883
0.0005883
-0.0009846
-0.0016016
0.0006016
-0.0010133
-0.0016016
0.0006016
-0.001
-0.0015603
0.0005603
-0.0009587
-0.0016125
0.0006125
-0.0010522
-0.001619
0.000619
-0.0010065
-0.0015693
0.0005693
-0.0009503
-0.0016042
0.0006042
-0.0010349
-0.0015623
0.0005623
-0.0009581
-0.0016048
0.0006048
-0.0010425
-0.0015925
0.0005925
-0.0009877
-0.0015776
0.0005776
-0.0009851
-0.0016019
0.0006019
-0.0010243
-0.0016033
0.0006033
-0.0010014
-0.0015644
0.0005644
-0.0009611
-0.0016167
0.0006167
-0.0010523
-0.0016187
0.0006187
-0.001002
-0.0015716
0.0005716
-0.0009529
-0.0015799
0.0005799
-0.0010083
-0.0016457
0.0006457
-0.0010658
-0.0016136
0.0006136
-0.0009679
-0.0015826
0.0005826
-0.000969
-0.0015819
0.0005819
-0.0009993
-0.0016014
0.0006014
-0.0010195
-0.0016025
0.0006025
-0.0010011
-0.0015622
0.0005622
-0.0009597
-0.0016047
0.0006047
-0.0010425
-0.0015913
0.0005913
-0.0009866
-0.0015785
0.0005785
-0.0009872
-0.0016046
0.0006046
-0.0010261
-0.0016027
0.0006027
-0.0009981
-0.001564
0.000564
-0.0009613
-0.001617
0.000617
-0.001053
-0.001621
0.000621
-0.001004
-0.0015759
0.0005759
-0.0009549
-0.0015856
0.0005856
-0.0010097
-0.0016458
0.0006458
-0.0010602
-0.0016002
0.0006002
-0.0009544
-0.0016056
0.0006056
-0.0010054
-0.0015784
0.0005784
-0.0009728
-0.0016026
0.0006026
-0.0010242
-0.0015945
0.0005945
-0.0009919
-0.0015604
0.0005604
-0.0009659
-0.0016055
0.0006055
-0.0010451
-0.0016027
0.0006027
-0.0009972
-0.0015882
0.0005882
-0.0009855
-0.001602
0.000602
-0.0010138
-0.001602
0.000602
-0.001
-0.0015607
0.0005607
-0.0009587
-0.0016126
0.0006126
-0.0010519
-0.0016189
0.0006189
-0.0010063
-0.0015688
0.0005688
-0.0009499
-0.0016029
0.0006029
-0.0010341
-0.0015593
0.0005593
-0.0009564
-0.0015987
0.0005987
-0.0010394
-0.001581
0.000581
-0.0009823
-0.0015663
0.0005663
-0.0009853
-0.0015953
0.0005953
-0.001029
-0.0015946
0.0005946
-0.0009993
-0.00156
0.00056
-0.0009654
-0.0016252
0.0006252
-0.0010652
-0.0016399
0.0006399
-0.0010147
-0.0015722
0.0005722
-0.0009323
-0.0015026
0.0005026
-0.0009304
-0.001576
0.000576
-0.0010734
-0.0016841
0.0006841
-0.0011081
0.0010082
-0.0020082
-0.0009918
-0.0013241
-0.00122535
-0.0019918
-0.000413421
0.00141342
0.00142761
-0.000427609
0.0014128
-0.000412795
0.00137769
-0.000377692
-0.000369147
0.00136915
-0.000360724
0.00136072
-0.000376047
0.00137605
-0.000377967
0.00137797
-0.000357473
0.00135747
-0.000373876
0.00137388
-0.00036158
0.00136158
-0.000352521
0.00135252
-0.000363576
0.00136358
-0.000349398
0.0013494
-0.000346387
0.00134639
-0.000341576
0.00134158
-0.000383346
0.00138335
-0.00036249
0.00136249
-0.000366426
0.00136643
-0.000367776
0.00136778
-0.000354896
0.0013549
-0.00034416
0.00134416
-0.000353194
0.00135319
-0.000377552
0.00137755
-0.000360612
0.00136061
-0.000353604
0.0013536
-0.000367818
0.00136782
-0.00036547
0.00136547
-0.000349814
0.00134981
-0.0003752
0.0013752
-0.000386657
0.00138666
-0.000351947
0.00135195
-0.000366591
0.00136659
-0.000380947
0.00138095
-0.000352216
0.00135222
-0.000363861
0.00136386
-0.000366012
0.00136601
-0.000381205
0.00138121
-0.00037065
0.00137065
-0.000357551
0.00135755
-0.000373544
0.00137354
-0.000364457
0.00136446
-0.000348744
0.00134874
-0.000373902
0.0013739
-0.000381688
0.00138169
-0.000348803
0.0013488
-0.000361128
0.00136113
-0.000404337
0.00140434
0.00102702
-0.000450256
0.00145026
-0.001605
-0.00131205
0.00031205
-0.00135208
0.00035208
-0.00135236
0.00035236
-0.00135904
0.00035904
-0.0013558
0.0003558
-0.0013606
0.0003606
-0.0013412
0.0003412
-0.0013773
0.0003773
-0.0013518
0.0003518
-0.001355
0.000355
-0.001368
0.000368
-0.0013615
0.0003615
-0.0013366
0.0003366
-0.0013494
0.0003494
-0.0013882
0.0003882
-0.0013571
0.0003571
-0.0013738
0.0003738
-0.0013532
0.0003532
-0.0013614
0.0003614
-0.0013442
0.0003442
-0.0013618
0.0003618
-0.0013641
0.0003641
-0.001377
0.000377
-0.0013425
0.0003425
-0.0013828
0.0003828
-0.0013705
0.0003705
-0.0013592
0.0003592
-0.0013742
0.0003742
-0.0013601
0.0003601
-0.0013505
0.0003505
-0.0013538
0.0003538
-0.0013883
0.0003883
-0.0013704
0.0003704
-0.0013764
0.0003764
-0.0013528
0.0003528
-0.0013615
0.0003615
-0.0013524
0.0003524
-0.0013543
0.0003543
-0.0013608
0.0003608
-0.0013764
0.0003764
-0.0013439
0.0003439
-0.0013567
0.0003567
-0.0013665
0.0003665
-0.0013587
0.0003587
-0.0013856
0.0003856
-0.0013967
0.0003967
-0.0014668
0.0004668
-0.0012565
0.0002565
0.000998481
0.00103763
0.00101815
0.00154895
0.000987795
0.00103662
0.0009904
0.00098175
0.00101717
0.000987146
0.000985249
0.00100672
0.00103378
0.0010091
0.000980453
0.00104498
0.00100784
0.000996644
0.00102006
0.0010126
0.000986564
0.000986079
0.00103103
0.00100372
0.000979803
0.00101185
0.00103754
0.00102065
0.000986214
0.00103462
0.00101271
0.000967734
0.0010248
0.00102492
0.000983762
0.000976262
0.00103651
0.000985849
0.000984254
0.00101574
0.0009935
0.000986678
0.000995477
0.00103791
0.00101
0.000981337
0.00102801
0.00100975
0.000983737
0.000965133
0.000979536
-0.00103697
-0.00098748
-0.00100137
-0.00102452
-0.0010202
-0.0009739
-0.0010601
-0.0009986
-0.0010234
-0.0010117
-0.0010173
-0.0009794
-0.0010145
-0.0010456
-0.0010143
-0.0010037
-0.0010322
-0.0010131
-0.0009925
-0.0010064
-0.0010268
-0.0010292
-0.0009559
-0.0010652
-0.0010064
-0.0010204
-0.001018
-0.0010182
-0.0009915
-0.0010155
-0.0010425
-0.001029
-0.0010023
-0.001005
-0.001014
-0.0009986
-0.0010221
-0.001027
-0.0010469
-0.0009598
-0.0010161
-0.0010094
-0.0010228
-0.001011
-0.0010551
-0.001045
-0.0007811
-0.0010867
0.00102667
0.000967505
0.00101093
0.00103525
0.000976876
0.000978512
0.000999957
0.00100849
0.000969201
0.000995167
0.00100817
0.000938166
0.00100826
0.0010095
0.00101257
0.000981845
0.00100701
0.00101116
0.000963796
0.0009794
0.000986354
0.000999572
0.000967725
0.00100295
0.00100688
0.000963744
0.00100979
0.00100159
0.00100938
0.000992217
0.00100251
0.0010136
0.000969063
0.00101705
0.00102642
0.00098853
0.000971172
0.00100571
0.000993505
0.000964204
0.00102314
0.00100394
0.000991658
0.000974545
-0.0010128
-0.00100531
-0.00097224
-0.0009846
-0.0010067
-0.000976
-0.0009759
-0.0009798
-0.0010013
-0.0009762
-0.0009957
-0.0009983
-0.0009932
-0.0009546
-0.001013
-0.0009472
-0.0009951
-0.0009903
-0.0010112
-0.0009755
-0.0009837
-0.0010096
-0.0009751
-0.0009813
-0.0009683
-0.000997
-0.0009677
-0.0009989
-0.0009878
-0.000992
-0.0009531
-0.0010037
-0.0009714
-0.0009947
-0.0009923
-0.0009798
-0.0009795
-0.0009687
-0.0010077
-0.0009967
-0.0010004
-0.0009694
-0.0010159
-0.000956
-0.0010251
-0.0010086
-0.0011303
0.00106324
0.000922569
-0.00100306
0.00131798
-0.00040844
0.00139624
0.00150869
-0.000529255
-0.000412576
0.00144575
0.00109611
-0.000462525
0.00144382
0.00098323
-0.000426977
0.0014578
0.00101684
-0.000385325
0.00141057
0.00107247
-0.000367825
0.00135677
0.00104274
-0.000338091
0.00133232
0.00101868
-0.000373236
0.00135914
0.00095908
-0.000355206
0.00137027
0.00100393
-0.00037021
0.00134661
0.00100006
-0.000359385
0.00136377
0.00098723
-0.000330457
0.00138022
0.00103331
-0.000361374
0.00132559
0.00101885
-0.000372503
0.00139678
0.00095309
-0.000328603
0.00132487
0.00106818
-0.000342009
0.00132489
0.00098286
-0.000344282
0.00138648
0.00098061
-0.000337908
0.00132367
0.00104857
-0.000341889
0.00133399
0.00098178
-0.000339842
0.00133622
0.00099415
-0.000342819
0.00134037
0.0009934
-0.000349867
0.00135648
0.0009905
-0.000355435
0.0013462
0.00100105
-0.00033362
0.00132904
0.00101258
-0.000364367
0.00135514
0.00096467
-0.000344549
0.00137026
0.00101059
-0.000361346
0.00135951
0.00100891
-0.000360434
0.00133934
0.00099908
-0.000325165
0.00133196
0.00101417
-0.000338984
0.00132086
0.00099298
-0.000366793
0.00139516
0.00095407
-0.000332931
0.00132931
0.00106223
-0.000370456
0.00136922
0.00095885
-0.000358329
0.0013875
0.00101089
-0.00033685
0.00132371
0.00105065
-0.000334825
0.00131875
0.00098888
-0.000326877
0.00133151
0.00099187
-0.000343965
0.00134063
0.00098754
-0.000351301
0.00135745
0.00098933
-0.00035818
0.00134947
0.00099927
-0.000342986
0.00135174
0.00100648
-0.00035842
0.0013468
0.00099332
-0.00034679
0.00134467
0.00100001
-0.000353249
0.00135838
0.00099142
-0.000364799
0.00133922
0.00099358
-0.000344643
0.00138356
0.00099458
-0.000363734
0.00132493
0.00101983
-0.000364103
0.00139633
0.00096083
-0.000330226
0.00132453
0.0010661
-0.00036804
0.00135559
0.00095649
-0.00034915
0.00137245
0.00100644
-0.00034391
0.00133473
0.00102854
-0.000368691
0.00136078
0.00096604
-0.00034278
0.00134802
0.001018
-0.000331753
0.00133502
0.00101627
-0.000347313
0.00135521
0.00098771
-0.000354896
0.00134694
0.00100031
-0.000340137
0.00134876
0.0010068
-0.000355995
0.00134378
0.00099276
-0.000348745
0.00134582
0.00099503
-0.000355626
0.00136071
0.00099019
-0.000364302
0.00134413
0.00099641
-0.000334085
0.00134039
0.00101005
-0.000367544
0.00135285
0.00097285
-0.000342497
0.00136683
0.00101035
-0.000314051
0.00131757
0.00105278
-0.000352678
0.00133183
0.00096489
-0.000338467
0.00137124
0.00099336
-0.000344528
0.00133418
0.00102671
-0.000367891
0.00135896
0.00096629
-0.000343045
0.00134406
0.00101592
-0.000336022
0.00132632
0.00100804
-0.000343116
0.00138709
0.0009832
-0.000339071
0.00132501
0.00104802
-0.000347609
0.00134698
0.0009774
-0.000360753
0.00134483
0.00098623
-0.000351928
0.00134854
0.0009929
-0.000353378
0.00136184
0.00099516
-0.000357936
0.00134312
0.0010039
-0.000323776
0.00133492
0.00101934
-0.000330016
0.00131778
0.0010049
-0.000327093
0.00135598
0.00099069
-0.000359042
0.00134091
0.00099694
-0.00035566
0.00133615
0.00098525
-0.000341192
0.00137696
0.00099496
-0.00034793
0.00133826
0.00102903
-0.000369763
0.00137353
0.0009685
-0.000355535
0.00134095
0.001018
-0.000341041
0.00132766
0.00099991
-0.000351847
0.00139026
0.00097581
-0.000354459
0.00133432
0.0010358
-0.000378168
0.00137855
0.00095615
-0.000388334
0.0013488
0.00099022
-0.000407998
0.00137038
0.0009408
-0.000457497
0.00142874
0.00091288
-0.000550392
0.00144206
0.00087835
0.00153775
-0.000705897
0.00064535
0.00073616
-0.00136925
0.00036619
0.00141851
-0.000495942
-0.000352526
0.00138915
-0.000500492
0.00153812
-0.000350003
0.0013404
-0.000371056
0.00135281
-0.000344651
0.00136182
0.00137102
-0.000383877
0.0013519
-0.000366648
0.00136291
-0.000356193
0.00135264
-0.000318856
-0.000372387
0.00138149
-0.000398571
0.00137902
-0.000329785
0.00137476
-0.000363949
0.00137179
-0.00038573
0.00138237
-0.00034709
0.00136715
-0.00033876
0.00135136
-0.00034514
0.0013317
-0.000384415
0.00137049
-0.000353499
0.00138453
-0.000366216
0.00136994
-0.000363283
0.00134309
-0.000353562
0.00136541
-0.000320938
0.00135848
-0.000352792
0.00137345
-0.000393808
0.00138002
-0.000322627
0.00135725
-0.000363396
0.00137611
-0.000375436
0.00134317
-0.000346574
0.00137137
-0.000347284
0.0013722
-0.000346247
0.00133001
-0.000385411
0.00136167
-0.00034029
0.0013768
-0.00034259
0.00132844
-0.000382934
0.00136719
-0.000354071
0.00136982
-0.00034924
0.00134274
-0.000374601
0.00136128
-0.000388019
0.0013835
-0.000321528
0.00135944
-0.000357125
0.00136713
-0.000404301
0.00138564
-0.000344892
0.0013729
-0.000355951
0.0013657
-0.000335665
0.0013194
-0.00037687
0.001342
0.0012394
-0.000259868
-0.00136697
0.00035417
-0.000447941
0.00147496
0.00097057
0.00106652
0.000224906
-0.0001507
-0.0014543
-0.0014748
0.00139673
-0.000370053
0.00102567
0.000817488
-0.00139293
0.00038762
-0.00135046
0.00037822
-0.0013481
0.0003635
-0.0013449
0.0003382
-0.0013823
0.0004063
-0.0013505
0.0003746
-0.0013579
0.0003781
-0.0013536
0.0003523
-0.0013621
0.0003859
-0.0013619
0.0003662
-0.001379
0.0003807
-0.0013769
0.0003837
-0.0013395
0.0003849
-0.0013526
0.0003396
-0.0013414
0.0003942
-0.0013754
0.0003803
-0.0013744
0.0003841
-0.0013845
0.0003733
-0.0013564
0.0003809
-0.0013606
0.0003769
-0.0013466
0.000337
-0.0013691
0.000394
-0.0013615
0.0003802
-0.0013472
0.0003789
-0.0013553
0.0003583
-0.0013428
0.0003751
-0.00136
0.0003611
-0.0013646
0.0003768
-0.0013804
0.0003884
-0.0013358
0.0003827
-0.0013585
0.0003548
-0.0013368
0.0003654
-0.0013718
0.0003771
-0.0013734
0.0003811
-0.0013513
0.0003715
-0.0013582
0.0003787
-0.0013607
0.000392
-0.0013472
0.0003395
-0.0013797
0.000383
-0.0013762
0.0003758
-0.0013449
0.0003755
-0.0013609
0.000345
-0.0013595
0.0004035
-0.0014354
0.0004103
-0.0015903
0.0005817
-8.64e-05
-0.0010439
-0.0015407
-0.000247249
0.00131049
0.00129087
0.00081455
0.00136728
-0.000368795
0.00101475
0.001397
-0.000378858
0.001047
-0.00155067
0.00051984
-0.00090532
-0.00154737
0.00054754
-0.00102753
-0.00147865
0.00054735
-0.00093111
-0.00152478
0.00051822
-0.00097743
-0.001554
0.00048751
-0.00103578
-0.00149794
0.00054857
-0.00101043
-0.00150309
0.00049947
-0.00095452
-0.00147166
0.00050061
-0.00097219
-0.00153327
0.0005081
-0.00103266
-0.0015231
0.000517
-0.001015
-0.0014613
0.0005067
-0.0009443
-0.0015501
0.0005048
-0.0010434
-0.0014958
0.0005011
-0.000991
-0.0015196
0.0005339
-0.0010185
-0.0015236
0.0005106
-0.0009897
-0.0015134
0.0005138
-0.0010028
-0.0015002
0.0005418
-0.0009864
-0.0015513
0.0004985
-0.0010095
-0.0015043
0.0004969
-0.0010058
-0.0015028
0.0005441
-0.0010059
-0.0015424
0.0005326
-0.0009983
-0.0015329
0.0004738
-0.0010003
-0.0015043
0.0005511
-0.0010305
-0.0015041
0.0004996
-0.000953
-0.0014738
0.0005015
-0.0009742
-0.0015327
0.0005083
-0.0010312
-0.0015216
0.000528
-0.0010133
-0.0014663
0.0004995
-0.0009383
-0.0015482
0.0005031
-0.0010487
-0.0014987
0.0005033
-0.0009956
-0.0015173
0.0005327
-0.001014
-0.0015226
0.0005093
-0.0009899
-0.0015123
0.0005123
-0.001003
-0.001501
0.0005423
-0.0009887
-0.0015503
0.0004981
-0.001008
-0.0015041
0.0004976
-0.001006
-0.0015025
0.0005522
-0.0010049
-0.001556
0.0005211
-0.0010038
-0.001465
0.0005069
-0.0009439
-0.0015459
0.0005034
-0.001039
-0.00149
0.0005023
-0.0009866
-0.0014865
0.0005014
-0.0009842
-0.0015311
0.0005068
-0.0010297
-0.001518
0.0005166
-0.0010112
-0.0015064
0.0005453
-0.0009898
-0.0015582
0.0005059
-0.0010129
-0.0015036
0.0005016
-0.0009977
-0.0014908
0.0005379
-0.0009892
-0.0015272
0.0005189
-0.0009893
-0.0015268
0.000461
-0.0010079
-0.0015115
0.0005436
-0.0010505
-0.0014931
0.0005241
-0.0009495
-0.0015164
0.0005171
-0.0009923
-0.0015262
0.0005067
-0.0010091
-0.0015199
0.0005188
-0.0010132
-0.0014665
0.0005068
-0.0009477
-0.0015472
0.0005047
-0.0010404
-0.0014883
0.0005017
-0.0009836
-0.0014806
0.0004934
-0.0009789
-0.0015489
0.0005228
-0.0010555
-0.0015124
0.0005143
-0.0009896
-0.001506
0.0005447
-0.0009917
-0.0015576
0.0005046
-0.0010129
-0.0015059
0.0005019
-0.0010013
-0.0014951
0.0005402
-0.0009932
-0.0015377
0.000528
-0.0009975
-0.0015309
0.0004707
-0.0010029
-0.0015039
0.0005495
-0.0010332
-0.0015044
0.000499
-0.0009549
-0.0014741
0.0005013
-0.0009751
-0.0015336
0.0005094
-0.0010323
-0.001523
0.0005311
-0.0010136
-0.0014638
0.0004979
-0.0009327
-0.001544
0.0004989
-0.0010461
-0.0014975
0.0005003
-0.0009986
-0.0015177
0.0005322
-0.0010174
-0.0015234
0.0005096
-0.0009912
-0.001513
0.000513
-0.0010034
-0.0015017
0.000543
-0.0009887
-0.0015502
0.0004983
-0.0010072
-0.0015041
0.0004978
-0.0010058
-0.0015021
0.0005522
-0.0010043
-0.0015553
0.0005212
-0.0010031
-0.0014632
0.0005068
-0.000942
-0.0015396
0.0005002
-0.0010328
-0.0014817
0.0004994
-0.0009815
-0.0014583
0.000473
-0.0009589
-0.0015352
0.0005062
-0.0010622
-0.0015024
0.0005031
-0.0009962
-0.0014992
0.0005338
-0.0009961
-0.0015555
0.0004903
-0.0010217
-0.0015359
0.0005212
-0.0010456
-0.0015246
0.0005923
-0.0010034
-0.0015028
0.0005724
-0.0009105
-0.0012538
0.0001804
-0.0006814
0.00166123
0.00146431
0.00102744
0.00113197
-0.00037761
-0.00099164
0.00101029
0.00035577
-0.00139274
-0.000369766
0.00133727
-0.000340293
0.00135123
-0.000363923
0.00139917
-0.000373037
0.00134991
-0.000331494
0.00131001
0.00136523
-0.00036527
0.00139427
-0.000385779
0.00131153
-0.000342334
0.00135589
-0.000360722
0.00139484
-0.000386673
0.00132498
-0.000386814
0.00135337
-0.000345114
0.00138835
-0.00037885
0.00137267
-0.000360104
0.00136216
-0.000380314
0.0013818
-0.000374784
0.00138514
-0.00037398
0.00133199
-0.000368196
0.00131747
-0.000338068
0.00135179
-0.000365438
0.00137514
-0.000375566
0.00131725
-0.000349522
0.00137339
-0.00037044
0.00139386
-0.000386976
0.00132908
-0.00036534
0.00135738
-0.000347593
0.00138455
-0.000382953
0.00137198
-0.000362599
0.00133912
-0.000346903
0.00139367
-0.000391164
0.0013644
-0.000350809
0.00133862
-0.000369558
0.00136043
-0.000343375
0.00140073
-0.00037431
0.00135778
-0.000369249
0.00132191
-0.000350736
0.00136445
-0.000358733
0.00137327
-0.000379766
0.00132431
-0.000360108
0.00136675
-0.000343612
0.00137973
-0.000375787
0.00135578
-0.000364122
0.0013105
-0.000335953
-0.0010112
0.00098304
-0.00137669
0.00038921
0.00037409
-0.00137546
0.000365
-0.00138952
0.0003518
-0.001372
0.0003826
-0.0013565
0.0003601
-0.0014202
0.0003519
-0.0013505
0.0003618
-0.0013852
0.0003645
-0.0013762
0.0003827
-0.0014
0.0003705
-0.0013499
0.0003704
-0.0013849
0.0003421
-0.0013877
0.0003758
-0.0013901
0.0003552
-0.0013589
0.0003951
-0.0014273
0.0003745
-0.0013876
0.0003778
-0.0013703
0.0003713
-0.0013777
0.0003699
-0.0013967
0.0003485
-0.0013777
0.0003838
-0.0013397
0.0003576
-0.0014228
0.0003588
-0.0013652
0.0003729
-0.0013933
0.0003501
-0.0013681
0.0003784
-0.0013966
0.0003557
-0.0013472
0.0003863
-0.0014018
0.0003496
-0.0013921
0.0003468
-0.0013758
0.0003556
-0.0013579
0.0003799
-0.0013849
0.0003726
-0.0013866
0.0003673
-0.0013659
0.0003683
-0.0013904
0.0003684
-0.0013954
0.0003628
-0.0014097
0.0003738
-0.0013336
0.0003745
-0.0013906
0.0003557
-0.0013651
0.0003718
-0.0013946
0.0003491
-0.0013601
0.0003986
-0.0014537
0.0004597
-0.0015047
-0.001825
0.00099262
0.00098175
-0.00102655
0.0009957
-0.0012884
0.0001803
0.00097035
0.00099284
-0.0011306
-0.0010368
-0.0010104
-0.0009891
-0.0009892
-0.0010017
-0.0010059
-0.0009844
-0.0009923
-0.0009899
-0.000984
-0.0010008
-0.0009919
-0.0009812
-0.0010117
-0.0009862
-0.0009941
-0.0010089
-0.0009816
-0.0009927
-0.0009824
-0.0009884
-0.0010039
-0.0009853
-0.0009981
-0.0009907
-0.0009851
-0.0010067
-0.0009999
-0.0009803
-0.0009862
-0.0009768
-0.0009974
-0.0010065
-0.0010085
-0.0009792
-0.0009976
-0.0009918
-0.001006
-0.0009904
-0.0009997
-0.0009931
-0.0009831
0.00105063
0.00097891
0.00104406
0.0010108
0.00097942
0.00096897
0.00100732
0.00100038
0.00096976
0.00102613
0.00101119
0.00098455
0.00098147
0.00105108
0.00099883
0.00098657
0.0010383
0.0010101
0.00098251
0.00101842
0.00100999
0.00099462
0.00098133
0.000999
0.00099653
0.00097843
0.00102186
0.00101558
0.00100866
0.00098826
0.00104321
0.00101461
0.00097789
0.00100911
0.00099194
-0.0012433
-0.0010944
-0.0010502
-0.0010151
-0.0010191
-0.0009893
-0.0010076
-0.0009941
-0.0010177
-0.0010167
-0.0010189
-0.0009848
-0.0010095
-0.0010195
-0.0010031
-0.0009931
-0.0010037
-0.001025
-0.0009861
-0.0010215
-0.0010098
-0.0010144
-0.000985
-0.0010288
-0.0010027
-0.0010008
-0.0010158
-0.0010044
-0.0009862
-0.0010073
-0.0010331
-0.0010193
-0.0010052
-0.001004
-0.0010042
-0.0009837
-0.0010141
-0.0010239
-0.0010071
-0.0009759
-0.0010139
-0.00102252
0.00100605
0.00095528
0.00098991
0.00102929
0.00102553
0.00098736
0.00100071
0.00103276
0.00099203
0.00096843
0.00102644
0.00099763
0.00097763
0.00098564
0.00101477
0.00096741
0.00098925
0.00102378
0.00097783
0.00098913
0.00098681
0.0010305
0.00099788
0.00099304
0.00102734
0.00097489
0.00099596
0.00100975
0.00099018
0.0009716
0.00097251
0.00102204
0.00099556
0.00098512
0.00101404
0.00103669
0.00099571
0.00098737
0.00103142
0.00097886
0.0010071
0.00102153
0.00099372
0.00103252
0.00096735
0.00099115
-0.00097637
-0.00100372
-0.00098784
-0.0010113
-0.0010085
-0.0010183
-0.00032857
0.00133886
0.00149018
-0.00050695
-0.0004559
0.00147274
0.00103428
-0.0003698
0.00144227
0.00110294
-0.00036669
0.00140943
0.00107558
-0.00041027
0.00142895
0.00099916
-0.00043363
0.00139271
0.00099532
-0.00042075
0.00142468
0.00097196
-0.00040809
0.00140815
0.00101659
-0.00041574
0.00140297
0.00099241
-0.00037961
0.00141292
0.00102336
-0.00040533
0.00142418
0.00100759
-0.0004238
0.00137689
0.00100038
-0.00041352
0.0014817
0.00096337
-0.00046023
0.00144309
0.00102147
-0.00044049
0.0014211
0.0010026
-0.00040503
0.0014536
0.00101607
-0.00045854
0.00144032
0.00099506
-0.00039345
0.0013876
0.00104687
-0.00041411
0.00140751
0.00097349
-0.00041415
0.00140465
0.00099336
-0.00040012
0.00140117
0.00100453
-0.0004182
0.00143078
0.00098297
-0.00042195
0.00138662
0.00100883
-0.00040725
0.00141784
0.00097937
-0.00039489
0.0014038
0.00102295
-0.00040357
0.00140265
0.00100023
-0.00041267
0.00142684
0.00098998
-0.00043033
0.00142331
0.00099651
-0.00042042
0.00137449
0.00100289
-0.00041319
0.00147542
0.0009613
-0.00045511
0.00141396
0.00102031
-0.00041221
0.0014231
0.00100175
-0.00040721
0.00145786
0.00101589
-0.00046039
0.00144927
0.00099747
-0.00041942
0.00141129
0.00102985
-0.00042249
0.00141003
0.0009888
-0.00041554
0.00140487
0.00099449
-0.00040093
0.0014002
0.00100394
-0.00041796
0.00142444
0.00098224
-0.00040702
0.00140034
0.00101742
-0.00041955
0.00141956
0.00098079
-0.00041511
0.00140653
0.00100445
-0.00040725
0.00140083
0.00099928
-0.00041613
0.00141071
0.0009847
-0.0004053
0.00142513
0.00100541
-0.00041152
0.00137235
0.00101361
-0.00040654
0.00147264
0.00096581
-0.00044324
0.00139973
0.0010294
-0.00038835
0.00139479
0.00101138
-0.0004063
0.00143484
0.00098849
-0.00042365
0.00138969
0.00101119
-0.00040989
0.00142789
0.0009798
-0.00041262
0.00142889
0.00101527
-0.00042069
0.0014084
0.0010082
-0.00040034
0.00140065
0.00100806
-0.0004163
0.0014231
0.00098435
-0.00040842
0.00140118
0.00101468
-0.00042131
0.00141634
0.00097987
-0.00041685
0.00140704
0.00099949
-0.00040793
0.00140434
0.00099911
-0.00041611
0.00142616
0.00098823
-0.00043059
0.00140344
0.00099557
-0.00039425
0.0014046
0.00100919
-0.00042604
0.00147882
0.00097856
-0.00044626
0.00141115
0.00103256
-0.00040209
0.00139545
0.00100906
-0.0004083
0.00143501
0.00098715
-0.00042295
0.00138924
0.00101206
-0.0004076
0.00142352
0.00098164
-0.00041267
0.00142071
0.00101085
-0.00043481
0.00141801
0.0009859
-0.00040369
0.00145171
0.00101432
-0.00045971
0.00143711
0.000992
-0.00042234
0.00140857
0.00101477
-0.00042962
0.00142252
0.00097895
-0.00041532
0.00141048
0.0010072
-0.00040372
0.00140762
0.00100676
-0.00041443
0.00143377
0.00099319
-0.00042886
0.00143376
0.00100491
-0.00040888
0.00139957
0.00102488
-0.00041185
0.00140879
0.00098772
-0.00041795
0.0014032
0.00099084
-0.00039993
0.00139489
0.00100327
-0.00040921
0.00143824
0.00098568
-0.00042951
0.00139801
0.00100873
-0.00039032
0.00140832
0.00100769
-0.00042107
0.00142098
0.00098725
-0.00043954
0.00141535
0.00098144
-0.00041556
0.00145136
0.00099979
-0.00047815
0.0014343
0.00097321
-0.00043628
0.0014265
0.00099802
-0.00048318
0.00142398
0.00094332
-0.00049838
0.00141126
0.0009256
-0.00051112
0.00138947
0.00090014