/*--------------------------------*- C++ -*----------------------------------*\
  =========                 |
  \\      /  F ield         | OpenFOAM: The Open Source CFD Toolbox
   \\    /   O peration     | Website:  https://openfoam.org
    \\  /    A nd           | Version:  7
     \\/     M anipulation  |
\*---------------------------------------------------------------------------*/
FoamFile
{
    version     2.0;
    format      ascii;
    class       volScalarField;
    location    "0.45";
    object      T;
}
// * * * * * * * * * * * * * * * * * * * * * * * * * * * * * * * * * * * * * //

dimensions      [0 0 0 1 0 0 0];

internalField   nonuniform List<scalar> 
23686
(
0.509941
0.910643
0.997281
0.975489
1.00718
1.01727
1.00286
1.00909
1.00026
1.00127
0.999751
0.999405
0.999891
0.999662
0.999995
0.99997
1.00001
1.00003
1.00001
1.00002
1
1
0.999999
0.999998
1
0.999999
1
1
1
1
1
1
1
1
1
1
1
1
1
1
1
1
1
1
1
1
1
1
1
1
1
1
1
1
1
1
1
1
1
1
1
1
1
1
1
1
1
1
1
1
1
1
1
1
1
1
1
1
1
1
1
1
1
1
1
1
1
1
1
1
1
1
1
1
1
1
1
1
1
1
1
1
1
1
1
1
1
1
1
1
1
1
1
1
1
1
1
1
1
1
1
1
1
1
1
1
1
1
1
1
1
1
1
1
1
1
1
1
1
1
1
1
1
1
1
1
1
1
1
1
1
1
1
1
1
1
1
1
1
1
1
1
1
1
1
1
1
1
1
1
1
1
1
1
1
1
1
1
1
1
1
1
1
1
1
1
1
1
1
1
1
1
1
1
1
1
1
1
1
0.11164
-0.00310636
-0.000317299
5.52315e-05
-1.03084e-05
1.75234e-07
1.75512e-07
-3.2218e-08
2.0099e-09
3.76121e-10
-1.68931e-10
1.41689e-11
1.58892e-12
-9.18614e-13
9.32003e-14
1.45763e-14
-8.44736e-15
-2.75751e-16
3.78113e-16
1.75275e-17
-1.26907e-17
-1.84071e-18
5.40668e-20
4.36591e-20
5.17487e-21
6.19165e-24
-6.64897e-23
-8.64013e-24
-1.83786e-25
6.52901e-26
1.01609e-26
5.96603e-28
-1.36729e-29
-5.05185e-30
-4.94037e-31
-1.19344e-32
1.63828e-33
2.76154e-34
1.83594e-35
2.64775e-37
-6.5634e-38
-8.26426e-39
-4.11887e-40
-9.14726e-43
2.1173e-42
1.89155e-43
9.0901e-45
1.81855e-46
-2.40396e-47
1.08659e-64
-7.85046e-48
1.60167e-46
7.60892e-45
-3.44608e-43
9.16091e-43
3.04195e-41
-6.60013e-40
6.16621e-38
2.13056e-37
-9.24386e-36
-5.73521e-34
-4.7657e-34
1.53034e-32
3.30457e-31
-6.17692e-30
-7.92976e-29
1.76377e-28
-2.9385e-27
-9.80765e-26
-1.80109e-26
-5.14706e-24
-8.92096e-23
4.8936e-22
4.35248e-21
-1.7817e-20
-2.6385e-19
-2.53623e-18
-2.20695e-17
-2.23266e-17
-1.13756e-16
-1.14535e-15
1.29548e-16
2.38069e-15
-3.96781e-15
-3.92201e-15
4.93334e-14
-3.1514e-14
-1.33741e-13
-8.36755e-13
-2.10276e-12
2.79897e-12
3.34917e-11
1.349e-10
4.36987e-10
1.02179e-09
1.97943e-09
3.50748e-09
4.95262e-09
5.31711e-09
6.61749e-09
1
1
1
1
1
1
1
1
1
1
1
1
1
1
1
1
1
1
1
1
1
1
1
1
1
1
1
1
1
1
0.999998
0.999998
0.999996
0.999997
1
1
1.00002
1.00001
1.00001
1.00001
0.999977
0.999991
0.999947
0.999964
0.999924
0.999934
0.999963
0.999945
1.00014
1.00008
1.00044
1.00032
1.0007
1.00057
1.00064
1.00063
0.999992
1.00026
0.998438
0.999027
0.994772
0.995979
0.98783
0.990047
0.976486
0.980031
0.960053
0.965033
0.937685
0.944646
0.908321
0.917382
0.872716
0.883194
0.830732
0.843196
0.782074
0.796454
0.729865
0.745561
0.672738
0.68988
0.614713
0.631822
0.55518
0.572681
0.494634
0.51217
0.437167
0.453501
0.382588
0.398194
0.328938
0.344012
0.281382
0.294609
0.238488
0.250533
0.199465
0.210585
0.164945
0.174504
0.135809
0.143737
0.110845
0.117764
0.0893145
0.0952664
0.0710954
0.0760426
0.0564558
0.0604244
0.0445095
0.0477917
0.0344558
0.0371775
0.0267096
0.028804
0.0204639
0.0221393
0.0154457
0.0167694
0.0117362
0.0127268
0.00885903
0.00963256
0.00653857
0.00714609
0.00485805
0.00529974
0.00359083
0.00392522
0.00261749
0.00287602
0.00188996
0.0020791
0.00137407
0.00150853
0.000986468
0.00108686
0.000704808
0.000777719
0.00049439
0.000547585
0.00035032
0.000387325
0.000247637
0.000274457
0.000170775
0.000190211
0.000119011
0.000132237
8.211e-05
9.14766e-05
5.59755e-05
6.24983e-05
3.83333e-05
4.27518e-05
2.62386e-05
2.93234e-05
1.75081e-05
1.96637e-05
1.1846e-05
1.32555e-05
7.96952e-06
8.93244e-06
5.29124e-06
5.95384e-06
3.55601e-06
3.99917e-06
2.32539e-06
2.62912e-06
1.54168e-06
1.73792e-06
1.00818e-06
1.13975e-06
6.48338e-07
7.35147e-07
4.24632e-07
4.79926e-07
2.78177e-07
3.15046e-07
1.77388e-07
2.01912e-07
1.14687e-07
1.30243e-07
7.46412e-08
8.50114e-08
4.81821e-08
5.54475e-08
3.08891e-08
3.59222e-08
2.02566e-08
2.37028e-08
1.23257e-08
7.88441e-09
1.44732e-08
-7.86237e-48
5.71782e-09
0.0139069
-0.00200416
0.000101508
-3.29739e-06
-3.45347e-06
5.32202e-07
-1.86811e-08
-8.66986e-09
1.98271e-09
-2.28058e-10
-3.10422e-11
1.04242e-11
-1.27879e-12
-1.64225e-13
7.24093e-14
-8.51831e-15
-3.48863e-15
5.6319e-16
1.31806e-16
-1.31877e-17
-6.0216e-18
-3.19439e-19
7.86274e-20
1.70466e-20
1.07578e-21
-1.16723e-22
-2.68139e-23
-1.98663e-24
9.15769e-26
2.8443e-26
2.84752e-27
6.76588e-29
-1.2169e-29
-1.71528e-30
-1.0583e-31
1.76929e-33
7.45353e-34
8.03305e-35
3.19668e-36
-9.36969e-38
-2.56274e-38
-2.07883e-39
-5.85863e-41
3.97087e-42
7.11021e-43
4.44529e-44
1.60584e-45
-2.30156e-47
-0.00133342
-1.03129e-47
6.93164e-09
2.76721e-47
1.07996e-45
-6.3766e-44
1.62508e-42
1.11319e-42
-1.36484e-40
-6.34939e-39
-1.85306e-37
1.18257e-36
8.85727e-35
1.48375e-33
-1.83922e-33
-1.24579e-31
1.05189e-31
3.30591e-29
8.19566e-29
-5.9648e-28
2.64895e-26
2.04982e-25
-4.46145e-25
3.6282e-23
2.19521e-23
-1.8585e-21
-4.35703e-21
9.66753e-20
7.15839e-19
9.0249e-18
3.283e-17
8.63263e-18
4.67303e-16
1.77804e-15
-4.00518e-15
8.05127e-15
-2.17046e-14
5.71336e-14
-2.88843e-14
-2.47572e-14
-4.52319e-13
-1.53778e-12
-1.48063e-12
1.34333e-11
6.5649e-11
2.53256e-10
6.86375e-10
1.45716e-09
2.69396e-09
4.35083e-09
5.52239e-09
0.000148593
0.0642368
-2.77272e-05
0.453368
0.000140418
1.57756e-06
-1.07379e-05
1.40765e-06
-1.26049e-08
-2.71555e-08
5.35917e-09
-5.30708e-10
-1.08569e-10
2.92185e-11
-3.20993e-12
-5.33629e-13
2.02796e-13
-2.71241e-14
-1.0739e-14
1.74255e-15
4.57914e-16
-3.80846e-17
-2.10505e-17
-1.32894e-18
2.49749e-19
5.97195e-20
4.3528e-21
-3.54338e-22
-9.33124e-23
-7.92014e-24
2.31354e-25
9.59301e-26
1.06448e-26
3.4974e-28
-3.82984e-29
-6.09463e-30
-4.40355e-31
1.75344e-33
2.55029e-33
2.98119e-34
1.40613e-35
-1.99134e-37
-8.90053e-38
-8.25221e-39
-2.84593e-40
1.02083e-41
2.53981e-42
1.82998e-43
7.09189e-45
4.97376e-48
-3.01708e-47
1.34894e-45
-5.52454e-44
1.65608e-42
-7.44945e-43
-1.97577e-40
-5.97044e-39
-1.12127e-37
2.72726e-36
1.01706e-34
1.45667e-33
-3.21202e-33
-1.31223e-31
1.16182e-31
2.97322e-29
6.0897e-29
-4.40905e-28
2.53111e-26
1.73537e-25
-5.81509e-25
3.24535e-23
-1.28439e-23
-1.88653e-21
-4.75214e-21
8.42917e-20
6.02203e-19
8.188e-18
3.05866e-17
5.51577e-18
4.41429e-16
1.76706e-15
-3.96877e-15
8.31943e-15
-2.30144e-14
6.10292e-14
-2.77217e-14
-3.55146e-14
-5.37407e-13
-1.82973e-12
-1.5038e-12
1.67569e-11
8.10681e-11
3.08599e-10
8.29983e-10
1.76628e-09
3.23574e-09
5.20484e-09
6.52726e-09
2.62205e-47
-1.13234e-07
5.32842e-07
-8.58928e-08
3.92096e-09
1.23028e-09
-4.58742e-10
3.2377e-11
5.30065e-12
-2.46621e-12
2.41672e-13
3.91606e-14
-2.46049e-14
-9.82715e-16
1.2658e-15
7.01852e-17
-3.94334e-17
-6.90069e-18
1.23163e-19
1.40633e-19
1.86462e-20
2.70764e-22
-2.27515e-22
-3.03697e-23
-1.03271e-24
2.20288e-25
3.42698e-26
2.44598e-27
-2.36997e-29
-1.8011e-29
-1.81822e-30
-6.31125e-32
5.3969e-33
9.35172e-34
7.44035e-35
1.61715e-36
-2.08741e-37
-2.88629e-38
-1.76627e-39
-1.89454e-41
6.39362e-42
7.46552e-43
3.90664e-44
9.71016e-46
-6.24389e-47
3.75668e-45
-3.75642e-43
1.81135e-42
3.48781e-41
-5.35262e-40
5.59197e-38
-1.20662e-37
-1.48752e-35
-5.97417e-34
-6.17571e-35
1.77347e-32
3.2151e-31
-5.82137e-30
-6.99608e-29
1.67654e-28
-3.29738e-27
-8.85163e-26
4.11344e-26
-4.46809e-24
-7.77957e-23
5.5112e-22
4.30078e-21
-1.62068e-20
-2.28876e-19
-2.25015e-18
-2.07923e-17
-2.07301e-17
-1.05486e-16
-1.09225e-15
9.89995e-17
2.55615e-15
-4.57163e-15
-2.58525e-15
5.51963e-14
-3.62976e-14
-1.68724e-13
-1.02137e-12
-2.43953e-12
3.82111e-12
4.08113e-11
1.64659e-10
5.30106e-10
1.2402e-09
2.39555e-09
4.20842e-09
5.92763e-09
6.4206e-09
-0.00528114
-0.00556021
2.08624e-46
0.594883
-0.00160947
0.942444
1.00339
0.979133
1.00791
1.01325
1.00265
1.00761
0.999944
1.00096
0.999656
0.999356
0.999885
0.999649
1
0.999959
1.00002
1.00003
1.00001
1.00002
1
1
0.999999
0.999998
1
0.999999
1
1
1
1
1
1
1
1
1
1
1
1
1
1
1
1
1
1
1
1
1
1
1
1
1
1
1
1
1
1
1
1
1
1
1
1
1
1
1
1
1
1
1
1
1
1
1
1
1
1
1
1
1
1
1
1
1
1
1
1
1
1
1
1
1
1
1
1
1
1
1
1
1
1
1
1
1
1
1
1
1
1
1
1
1
1
1
1
1
1
1
1
1
1
1
1
1
1
1
1
1
1
1
1
1
1
1
1
1
1
1
1
1
1
1
1
1
1
1
1
1
1
1
1
1
1
1
1
1
1
1
1
1
1
1
1
1
1
1
1
1
1
1
1
1
1
1
1
1
1
1
1
1
1
1
1
1
1
1
1
1
1
1
1
1
1
1
1
1
3.95016e-46
0.00261077
0.000236229
0.235597
-1.05639e-05
-3.4347e-06
7.57151e-07
-5.52953e-08
-7.55959e-09
3.23927e-09
-3.74955e-10
-2.60043e-11
1.67537e-11
-2.28877e-12
-1.72468e-13
1.28744e-13
-1.35066e-14
-6.46442e-15
7.39031e-16
3.18992e-16
1.09212e-17
-7.42485e-18
-1.13022e-18
3.27496e-21
1.69707e-20
2.13815e-21
2.7411e-23
-2.33439e-23
-3.31299e-24
-1.43223e-25
1.45107e-26
2.79374e-27
1.8521e-28
-8.79412e-31
-1.33745e-30
-1.47709e-31
-5.81192e-33
2.40148e-34
6.3187e-35
5.01429e-36
1.62626e-37
-9.57541e-39
-1.80211e-39
-1.35906e-40
-4.25498e-42
2.21732e-43
3.3771e-44
2.58206e-45
9.29471e-47
-3.60982e-45
-0.00445074
-0.00527208
-0.00421271
-4.35378e-48
9.28286e-09
1.37645e-08
-1.31586e-05
-1.12008e-05
0.517419
-3.87918e-43
2.61903e-42
3.0627e-41
-6.95887e-40
6.54664e-38
-2.42021e-37
-2.11904e-35
-7.6426e-34
-5.72804e-34
1.93018e-32
4.66404e-31
-5.90629e-30
-1.01284e-28
1.49689e-28
-3.50107e-27
-1.14861e-25
-4.49015e-26
-3.62235e-24
-1.15629e-22
6.84564e-22
6.42602e-21
-1.4905e-20
-3.19718e-19
-2.9129e-18
-3.04866e-17
-4.48488e-17
-1.21529e-16
-1.59208e-15
-9.78081e-16
6.39262e-15
-1.23539e-14
1.22641e-14
5.45468e-14
-4.55952e-14
-3.06723e-13
-1.56791e-12
-3.17587e-12
8.52558e-12
6.60148e-11
2.59373e-10
7.9985e-10
1.80004e-09
3.45452e-09
5.92798e-09
8.14024e-09
7.91881e-09
1.01421e-08
0.0528654
0.185682
0.025489
7.61732e-05
0.000473589
6.62957e-05
7.89363e-06
1
1
1
1
1
1
1
1
1
1
1
1
1
1
1
1
1
1
1
1
1
1
1
1
1
1
1
1
0.999998
0.999998
0.999997
0.999996
1.00001
1
1.00002
1.00001
1
1.00001
0.999978
0.999994
0.999958
0.999968
0.999935
0.999928
0.999975
0.999926
1.00016
1.00005
1.00042
1.0003
1.00062
1.00056
1.00054
1.0007
0.999979
1.00051
0.998443
0.999631
0.994611
0.99692
0.987493
0.991326
0.976079
0.982004
0.95937
0.967611
0.937164
0.947569
0.908343
0.922042
0.871918
0.888217
0.829655
0.847682
0.781905
0.802459
0.730128
0.751495
0.674311
0.697847
0.615525
0.639319
0.556166
0.580073
0.495951
0.519858
0.437577
0.460192
0.382787
0.403277
0.330123
0.350152
0.281776
0.299828
0.238744
0.254554
0.200855
0.214788
0.166278
0.179066
0.135728
0.146356
0.111296
0.120021
0.0899903
0.0974978
0.0716383
0.0780171
0.0567874
0.0619189
0.0448167
0.0488732
0.0349092
0.0383243
0.0269463
0.0296169
0.0206452
0.0227609
0.0156144
0.0172872
0.0118563
0.0131118
0.00893422
0.00987894
0.0066394
0.00739163
0.00490814
0.00547096
0.00361645
0.00403014
0.00266231
0.0029686
0.00192712
0.00216423
0.0013819
0.00155005
0.00100007
0.00112282
0.000712937
0.00080205
0.000502007
0.000567698
0.000355157
0.000400894
0.000251563
0.000283436
0.000174669
0.000198397
0.00012095
0.000137225
8.31783e-05
9.44656e-05
5.69636e-05
6.48963e-05
3.88829e-05
4.43303e-05
2.66082e-05
3.02528e-05
1.79342e-05
2.05266e-05
1.20367e-05
1.37861e-05
8.03028e-06
9.18496e-06
5.41989e-06
6.20691e-06
3.62967e-06
4.14471e-06
2.39688e-06
2.75926e-06
1.57731e-06
1.81437e-06
1.02963e-06
1.18702e-06
6.65144e-07
7.70394e-07
4.35331e-07
5.0258e-07
2.84842e-07
3.27793e-07
1.83712e-07
2.12894e-07
1.17544e-07
1.3632e-07
7.66197e-08
8.8405e-08
5.11208e-08
5.8679e-08
3.46891e-08
4.02569e-08
0.759785
5.135e-47
-0.000422185
0.806072
4.95627e-46
0.000213928
1.67633e-45
5.01347e-47
6.51664e-07
1.62993e-07
-4.57899e-08
4.835e-09
4.16924e-10
-2.19665e-10
2.78344e-11
1.87239e-12
-1.34943e-12
1.85203e-13
2.7475e-14
-1.4977e-14
-9.13902e-16
6.51133e-16
9.8903e-17
-9.51068e-18
-3.40502e-18
-2.31264e-19
3.06204e-20
7.00649e-21
4.48461e-22
-3.59464e-23
-1.02286e-23
-8.21425e-25
2.49429e-27
7.70559e-27
8.24799e-28
2.70533e-29
-2.66198e-30
-5.23243e-31
-3.26632e-32
-4.4699e-34
1.62335e-34
1.93503e-35
1.06161e-36
2.97568e-39
-5.26503e-39
-5.17135e-40
-2.89124e-41
-6.62759e-44
1.06854e-43
9.70399e-45
5.42384e-46
-9.63808e-46
-2.08784e-07
-8.07574e-44
2.52008e-42
-2.15565e-42
-3.73253e-40
-4.58265e-39
-1.1081e-37
4.06461e-36
1.14233e-34
2.19036e-33
-4.5557e-33
-1.7112e-31
-2.4323e-31
3.54355e-29
1.07294e-28
-7.16326e-28
2.84487e-26
2.54651e-25
-1.04761e-24
3.9029e-23
3.17776e-23
-2.52314e-21
-9.78381e-21
9.93876e-20
7.74569e-19
1.05538e-17
5.0218e-17
9.98774e-18
5.91064e-16
2.9648e-15
-5.33043e-15
1.02883e-14
-3.20276e-14
9.54733e-14
-6.2555e-14
-6.18465e-14
-8.63182e-13
-2.66667e-12
-8.04758e-13
2.94541e-11
1.28788e-10
4.7316e-10
1.21317e-09
2.5605e-09
4.56322e-09
7.19781e-09
8.90318e-09
1.61872e-06
-3.79547e-12
2.22678e-45
3.99198e-11
2.32646e-08
-2.75323e-05
-1.2931e-10
9.31905e-09
6.72729e-09
3.8982e-09
1.9944e-09
8.79872e-10
2.79837e-10
6.98548e-11
7.69687e-12
-3.82165e-12
-1.74595e-12
-3.08571e-13
-4.65957e-14
7.12359e-14
7.39096e-15
-1.12667e-14
6.0793e-15
-6.81754e-16
-1.728e-15
-1.51878e-16
-4.23958e-17
-3.30387e-17
-3.22224e-18
-3.39584e-19
-1.96476e-20
7.23983e-21
8.89746e-22
-1.15809e-22
-5.27688e-24
9.19715e-26
-1.29063e-25
-5.15101e-27
2.53906e-28
-1.0118e-28
-7.62962e-30
5.08616e-31
2.80712e-32
6.41208e-35
-9.46997e-34
-2.85366e-35
-5.39659e-37
7.58631e-38
-8.12561e-40
5.05134e-41
4.24567e-46
8.70677e-45
1.14567e-43
4.60564e-43
-1.97487e-41
-4.53664e-40
-5.75066e-39
-2.20428e-38
7.02024e-37
1.70878e-35
1.90342e-34
3.53952e-34
-2.29599e-32
-5.04681e-31
-3.84422e-30
7.71751e-30
6.79974e-28
8.50513e-27
3.02689e-26
-5.89864e-25
-1.04647e-23
-6.34274e-23
2.2568e-22
6.92559e-21
4.71863e-20
-8.08379e-20
-3.54618e-18
-1.85193e-17
6.06502e-17
8.61333e-16
1.26022e-15
-1.8174e-14
-1.76369e-14
3.13769e-13
-7.91325e-13
1.01075e-08
8.16947e-09
5.14791e-09
2.85718e-09
1.34122e-09
5.13434e-10
1.37785e-10
3.0211e-11
-1.74145e-12
-3.04662e-12
-9.20322e-13
-5.39712e-14
-5.76259e-14
1.01583e-13
-3.64651e-14
1.21924e-14
-6.08315e-15
3.09999e-15
6.74646e-16
1.02834e-17
5.1946e-17
1.18508e-17
8.49678e-19
1.16492e-19
-9.57353e-21
-3.01925e-21
-2.47473e-23
4.57086e-23
-1.20431e-24
2.49503e-25
3.51123e-26
-6.61955e-28
7.65394e-29
4.21193e-29
-2.88542e-32
-2.09932e-31
-6.04124e-33
2.37291e-33
1.57891e-34
5.75343e-36
-1.01137e-37
-8.00698e-44
2.11252e-45
3.24313e-44
3.02805e-43
-1.62143e-42
-1.10105e-40
-1.7038e-39
-1.45913e-38
6.15793e-38
3.96589e-36
6.19909e-35
4.34513e-34
-2.97094e-33
-1.21498e-31
-1.49297e-30
-6.03562e-30
1.20555e-28
2.60651e-27
2.08173e-26
-5.0501e-26
-2.84631e-24
-2.8353e-23
-6.18933e-23
1.67638e-21
1.96005e-20
6.31831e-20
-8.81673e-19
-9.60157e-18
-1.41451e-17
3.15878e-16
1.60168e-15
-4.06979e-15
-3.45844e-14
9.66251e-14
2.9478e-13
-3.30796e-12
9.49538e-12
4.07327e-11
-5.33501e-10
2.0039e-09
6.02473e-09
-1.04441e-07
5.89458e-07
7.82864e-09
-3.0282e-08
-3.22023e-08
-5.57273e-10
4.06933e-42
-5.91873e-43
2.81645e-42
-2.59933e-42
-4.07103e-40
-7.59401e-39
0.000277452
0.982244
1.00991
1.00371
1.00638
1.01397
1.00125
1.00491
0.999712
1.00021
0.999713
0.999455
0.999923
0.999743
1.00001
0.999978
1.00002
1.00003
1
1.00001
0.999999
1
0.999999
0.999998
1
0.999999
1
1
1
1
1
1
1
1
1
1
1
1
1
1
1
1
1
1
1
1
1
1
1
1
1
1
1
1
1
1
1
1
1
1
1
1
1
1
1
1
1
1
1
1
1
1
1
1
1
1
1
1
1
1
1
1
1
1
1
1
1
1
1
1
1
1
1
1
1
1
1
1
1
1
1
1
1
1
1
1
1
1
1
1
1
1
1
1
1
1
1
1
1
1
1
1
1
1
1
1
1
1
1
1
1
1
1
1
1
1
1
1
1
1
1
1
1
1
1
1
1
1
1
1
1
1
1
1
1
1
1
1
1
1
1
1
1
1
1
1
1
1
1
1
1
1
1
1
1
1
1
1
1
1
1
1
1
1
1
1
1
1
1
1
1
-4.5648e-39
-1.11633e-05
-1.83116e-12
4.32327e-42
2.79668e-08
1.63778e-11
-3.26111e-09
2.79401e-09
1.07793e-06
6.55489e-08
-4.29999e-08
-2.54152e-08
5.85124e-09
8.21097e-09
7.48028e-09
1.24608e-08
1.76244e-08
-1.98811e-10
-9.00423e-11
2.04914e-45
3.55559e-11
4.31333e-11
1.35212e-08
-2.67468e-12
-1.27177e-14
1.53932e-13
-1.78565e-14
-9.34871e-15
1.0752e-16
3.27355e-16
3.33542e-17
-3.3907e-18
-1.18098e-18
-6.48253e-20
9.32558e-21
2.06749e-21
1.40979e-22
-7.17598e-24
-2.29661e-24
-2.04859e-25
-1.30008e-27
1.53453e-27
1.82327e-28
7.9573e-30
-3.76192e-31
-1.00642e-31
-7.6161e-33
-1.89625e-34
2.34719e-35
3.64386e-36
2.2042e-37
3.10396e-39
-7.84201e-40
-9.11273e-41
-5.09045e-42
-9.60322e-44
1.13563e-44
-1.66997e-05
-2.49828e-05
-6.85908e-40
-6.76941e-42
-5.98662e-43
4.82314e-42
3.38729e-41
-7.5447e-40
-8.3973e-40
-1.14564e-39
-8.86437e-39
-1.038e-43
-9.13145e-43
-9.78034e-38
8.3473e-36
1.82843e-34
3.38675e-33
-8.60016e-33
-2.66453e-31
-5.44211e-31
4.95531e-29
1.26344e-28
-9.69429e-28
4.1412e-26
3.50802e-25
-1.96853e-24
5.22758e-23
3.62024e-23
-4.04975e-21
-1.68335e-20
1.40389e-19
1.06809e-18
1.49064e-17
8.10161e-17
2.52748e-17
8.57297e-16
5.03907e-15
-7.59263e-15
1.33104e-14
-4.49579e-14
1.48674e-13
-1.11394e-13
-1.06797e-13
-1.4754e-12
-4.36473e-12
8.10406e-14
5.14395e-11
2.19388e-10
7.86082e-10
1.95279e-09
4.04547e-09
7.25794e-09
1.11094e-08
1.41957e-08
-1.62987e-06
-7.78344e-06
1.07724e-06
1
1
1
1
1
1
1
1
1
1
1
1
1
1
1
1
1
1
1
1
1
1
1
1
1
1
0.999998
0.999998
0.999997
0.999996
1
1
1.00001
1.00001
1
1.00001
0.99999
0.999999
0.999972
0.999978
0.999935
0.99993
0.999959
0.999916
1.00012
1.00003
1.00034
1.00025
1.00052
1.00049
1.00053
1.00068
1.00019
1.00064
0.998903
1.00002
0.995464
0.997686
0.988909
0.992667
0.978364
0.984042
0.962819
0.970808
0.941799
0.952134
0.914237
0.927418
0.879262
0.895225
0.837539
0.855634
0.790559
0.810785
0.739758
0.760734
0.685102
0.708271
0.627122
0.650698
0.567914
0.591716
0.507135
0.531066
0.448614
0.471256
0.39248
0.413923
0.339019
0.359342
0.2908
0.308875
0.246863
0.263073
0.207551
0.221944
0.172464
0.185364
0.141301
0.152459
0.115568
0.124565
0.0936307
0.101481
0.0746892
0.0812456
0.0594302
0.0647323
0.0467461
0.0509522
0.0365939
0.0400932
0.0282981
0.0310493
0.0217361
0.0239263
0.0164726
0.018231
0.0125237
0.0138368
0.00941415
0.0104384
0.00699135
0.0077843
0.00520714
0.00579258
0.00383951
0.00427985
0.00281294
0.0031407
0.00204027
0.0022846
0.00147626
0.00165725
0.0010605
0.00119052
0.000758636
0.000854262
0.000535428
0.000604951
0.000380454
0.000429273
0.000266957
0.000300758
0.000186868
0.000211841
0.000129374
0.000146625
8.9061e-05
0.000101321
6.08181e-05
6.93642e-05
4.17486e-05
4.757e-05
2.85478e-05
3.25061e-05
1.91449e-05
2.19306e-05
1.29801e-05
1.48504e-05
8.63512e-06
9.90068e-06
5.82242e-06
6.66722e-06
3.87206e-06
4.4287e-06
2.58179e-06
2.96465e-06
1.70168e-06
1.95431e-06
1.10901e-06
1.27683e-06
7.25148e-07
8.3617e-07
4.74665e-07
5.47358e-07
3.08853e-07
3.5665e-07
1.98493e-07
2.30505e-07
1.28344e-07
1.48724e-07
8.39276e-08
9.70096e-08
5.52387e-08
6.34595e-08
3.0984e-05
-1.13941e-05
1.30944e-08
-0.00459306
-4.40382e-10
-5.26471e-10
-0.000867393
7.78045e-05
1.8801e-08
9.08043e-46
0.572277
3.13337e-45
6.41977e-41
0.872928
2.96885e-08
1.44992e-09
1.04679e-10
6.45083e-07
-8.21115e-08
5.75648e-42
1.50347e-06
5.95087e-11
1.48497e-08
5.46373e-13
-1.25103e-12
2.8189e-13
2.89757e-14
-1.93212e-14
-2.40229e-15
5.34328e-16
1.30932e-16
2.21026e-18
-2.70419e-18
-3.51161e-19
1.80047e-21
5.26947e-21
6.32895e-22
1.45104e-23
-5.56916e-24
-7.88891e-25
-3.67994e-26
2.52826e-27
6.10967e-28
4.39922e-29
5.57878e-31
-2.61086e-31
-3.03362e-32
-1.54128e-33
2.04026e-35
1.09062e-35
9.75274e-37
3.88731e-38
-1.1275e-39
-2.90995e-40
-2.36103e-41
-9.08402e-43
1.13448e-44
8.19715e-12
-1.33549e-44
1.5727e-08
0.0179633
-0.003371
-6.59218e-42
8.5739e-42
1.21385e-45
0.921152
-1.2729e-36
-8.0845e-37
8.934e-38
1.12175e-35
1.05853e-37
-3.90295e-35
-1.17892e-33
-6.46796e-34
3.13935e-32
7.15945e-31
-7.03906e-30
-1.26834e-28
2.53225e-28
-5.05246e-27
-1.6262e-25
-1.21116e-26
-3.29563e-24
-1.60503e-22
1.09824e-21
1.00808e-20
-1.3394e-20
-4.23754e-19
-3.81039e-18
-4.62702e-17
-8.07614e-17
-1.72757e-16
-2.36405e-15
-2.95838e-15
1.21401e-14
-2.42056e-14
3.71694e-14
5.64478e-14
-4.96757e-14
-5.63411e-13
-2.65621e-12
-4.70641e-12
1.63165e-11
1.12366e-10
4.39748e-10
1.30438e-09
2.88807e-09
5.47236e-09
9.33202e-09
0.000195338
-4.91305e-35
3.77076e-08
0.0738136
0.000138865
1.25876e-08
8.14592e-09
4.52435e-09
2.15554e-09
8.55781e-10
2.3213e-10
5.30768e-11
-1.48498e-12
-4.98708e-12
-1.57838e-12
-9.08971e-14
-1.07322e-13
1.61959e-13
-5.25818e-14
1.63039e-14
-8.81797e-15
5.33597e-15
9.65196e-16
2.58253e-17
8.4497e-17
1.68333e-17
1.15947e-18
1.67617e-19
-1.68393e-20
-4.70906e-21
-5.02918e-23
6.25917e-23
-2.32474e-24
3.43336e-25
5.40926e-26
-9.62856e-28
7.12158e-29
2.5572e-44
-5.55748e-43
-1.95411e-41
-2.87044e-40
-1.90874e-39
2.12214e-38
8.03748e-37
1.11307e-35
5.34312e-35
-9.75545e-34
-2.65478e-32
-2.9003e-31
-4.95345e-31
3.27371e-29
5.80176e-28
3.78643e-27
-1.79711e-26
-7.06031e-25
-6.56518e-24
-5.53383e-24
5.29626e-22
6.00223e-21
1.62732e-20
-2.70238e-19
-3.28006e-18
-5.14435e-18
1.20063e-16
8.26816e-16
-9.32661e-16
-2.57476e-14
-2.03987e-14
-1.09066e-07
-6.76475e-10
1.05048e-08
6.13613e-09
3.21488e-09
1.43575e-09
4.72182e-10
1.18386e-10
1.5317e-11
-5.76664e-12
-2.95868e-12
-5.73779e-13
-4.95728e-14
8.13174e-14
3.12501e-14
-2.33823e-14
1.18588e-14
-2.50743e-15
-2.6376e-15
-2.1331e-16
-7.73927e-17
-4.96073e-17
-4.24493e-18
-4.49215e-19
-2.1256e-20
1.12085e-20
1.41757e-21
-1.60334e-22
-5.45913e-24
2.13934e-25
-1.77477e-25
-7.43583e-27
4.11077e-28
-0.00678227
-0.0031757
-0.00995505
-1.27378e-28
-9.5034e-30
7.87715e-31
4.32193e-32
5.07478e-34
-1.43328e-33
-1.55404e-44
-3.76842e-42
-8.26095e-41
-8.80701e-40
-1.12369e-39
1.60889e-37
3.35909e-36
2.95631e-35
-3.94185e-35
-5.98267e-33
-9.82474e-32
-6.23414e-31
4.1712e-30
1.5527e-28
1.69608e-27
4.19694e-27
-1.52176e-25
-2.29952e-24
-1.286e-23
8.7094e-23
2.03171e-21
1.34008e-20
-2.51047e-20
-1.15285e-18
-5.91092e-18
1.94008e-17
3.8054e-16
9.68096e-16
-8.45582e-15
-4.13198e-14
1.14856e-13
4.62499e-13
-3.25736e-12
5.92539e-45
0.64697
-1.07816e-44
3.93883e-07
-1.16808e-07
4.95486e-45
3.86498e-13
-5.5972e-13
-4.33942e-12
1.36323e-44
-1.09257e-43
5.74459e-29
-2.42508e-31
-3.1855e-31
-1.10095e-32
-5.84131e-38
3.64147e-33
2.42858e-34
0.00045649
-8.03679e-08
1.68907e-08
6.56166e-29
1.00293
1.00828
1.01211
1.00307
1.00796
1.00022
1.00185
0.999626
0.999683
0.999808
0.999572
0.999981
0.999882
1.00002
1.00002
1.00001
1.00003
1
1.00001
0.999999
0.999999
0.999999
0.999998
1
0.999999
1
1
1
1
1
1
1
1
1
1
1
1
1
1
1
1
1
1
1
1
1
1
1
1
1
1
1
1
1
1
1
1
1
1
1
1
1
1
1
1
1
1
1
1
1
1
1
1
1
1
1
1
1
1
1
1
1
1
1
1
1
1
1
1
1
1
1
1
1
1
1
1
1
1
1
1
1
1
1
1
1
1
1
1
1
1
1
1
1
1
1
1
1
1
1
1
1
1
1
1
1
1
1
1
1
1
1
1
1
1
1
1
1
1
1
1
1
1
1
1
1
1
1
1
1
1
1
1
1
1
1
1
1
1
1
1
1
1
1
1
1
1
1
1
1
1
1
1
1
1
1
1
1
1
1
1
1
1
1
0.136593
1
2.19818e-45
0.113514
-2.72738e-44
2.40381e-08
0.228572
5.72999e-09
-1.62365e-10
5.09745e-07
-2.27044e-08
9.14118e-42
-4.51283e-10
-4.80689e-10
1.22942e-06
1.81553e-06
1.38982e-06
-5.03917e-44
1.15872e-11
-3.04292e-12
4.00844e-09
2.7047e-07
-1.14151e-07
3.86471e-13
4.88595e-14
-1.67048e-14
-3.49889e-15
2.00388e-16
1.14989e-16
1.00842e-17
-1.24484e-18
-3.15307e-19
-1.99944e-20
1.91477e-21
4.845e-22
3.58586e-23
-9.17876e-25
-4.73564e-25
-4.12717e-26
-9.13506e-28
2.67285e-28
3.41908e-29
1.90494e-30
-3.03712e-32
-1.52124e-32
-1.31443e-33
-4.91056e-35
2.70517e-36
5.83962e-37
4.42854e-38
1.37213e-39
-7.36954e-41
-1.18095e-41
3.41278e-11
3.52514e-11
2.04816e-08
-0.00734108
-8.552e-43
5.20064e-33
1.94858e-08
1.28668e-37
1.47019e-35
-0.000126951
-7.8226e-43
2.77449e-34
-1.71225e-33
-2.03229e-33
5.51618e-33
-1.5287e-32
-3.82628e-31
-9.34304e-31
-7.79768e-30
-1.11015e-29
7.27545e-29
-1.88176e-43
-1.47965e-43
1.00736e-28
-1.59572e-27
6.74658e-26
4.84038e-25
-3.49963e-24
7.03499e-23
3.21443e-23
-6.10642e-21
-2.84334e-20
1.98519e-19
1.44888e-18
2.08222e-17
1.33448e-16
6.34118e-17
1.17707e-15
8.25871e-15
-9.83533e-15
1.52146e-14
-6.02201e-14
2.27728e-13
-1.86597e-13
-1.99885e-13
-2.5281e-12
-7.06634e-12
2.47878e-12
9.00099e-11
3.68863e-10
1.30912e-09
3.14244e-09
6.45428e-09
1.13402e-08
-1.76961e-41
2.891e-41
-6.28417e-35
-7.83059e-35
3.42099e-34
1
0.157078
1
1
1
1
1
1
1
1
1
1
1
1
1
1
1
1
1
1
1
1
1
1
0.999998
0.999999
0.999997
0.999996
1
1
1.00001
1.00001
1
1.00001
0.999998
1.00001
0.999977
0.999985
0.999927
0.99993
0.999938
0.999904
1.00008
1
1.00028
1.00019
1.00047
1.00042
1.00059
1.00067
1.00046
1.00081
0.999458
1.00042
0.996438
0.998444
0.990501
0.994076
0.980884
0.986217
0.966664
0.974298
0.946778
0.956988
0.920094
0.933084
0.886762
0.902072
0.845739
0.864613
0.799981
0.819999
0.750251
0.77209
0.696205
0.720047
0.638979
0.663384
0.580243
0.605172
0.518536
0.543565
0.459803
0.483216
0.403427
0.426136
0.34891
0.370119
0.300389
0.318793
0.255466
0.272739
0.214787
0.230145
0.179397
0.192944
0.147147
0.159331
0.120202
0.129775
0.0978136
0.106059
0.0781486
0.0853183
0.0621236
0.0677253
0.0488976
0.0535249
0.0382999
0.0420959
0.0296762
0.0326888
0.0229339
0.0253213
0.0173973
0.0193256
0.0132422
0.0146533
0.00999155
0.0111211
0.00741499
0.00827425
0.00554842
0.00616536
0.0040889
0.00457613
0.00297915
0.00334234
0.00217161
0.00243993
0.00157659
0.00177674
0.00113143
0.00127609
0.000813882
0.000918901
0.000573854
0.000651368
0.000407454
0.000460153
0.000285209
0.000323615
0.000198834
0.000226191
0.000138325
0.000157466
9.60291e-05
0.000109611
6.55823e-05
7.4918e-05
4.52845e-05
5.17112e-05
3.07565e-05
3.52968e-05
2.06259e-05
2.37077e-05
1.41275e-05
1.615e-05
9.37907e-06
1.08165e-05
6.27538e-06
7.19739e-06
4.1707e-06
4.80115e-06
2.77429e-06
3.20341e-06
1.82587e-06
2.10681e-06
1.20728e-06
1.39865e-06
7.79947e-07
9.05991e-07
5.16401e-07
5.97069e-07
3.38208e-07
3.93663e-07
2.18554e-07
2.54515e-07
1.4215e-07
1.64855e-07
9.36829e-08
1.09387e-07
6.05132e-08
7.11436e-08
0.000126296
0.000292128
0.000347145
0.000322973
0.756643
-1.57758e-28
6.07238e-30
1.11296e-41
-1.83073e-41
-1.7587e-10
-7.68628e-10
1.86058e-08
2.13718e-08
2.37791e-08
1.42921e-08
1.92897e-08
7.54066e-42
1.62464e-41
-1.54952e-36
1.83307e-35
-1.38022e-43
-1.57713e-43
-1.27197e-42
2.11027e-13
7.1942e-13
-0.00272339
-0.00153449
8.47006e-42
-6.24248e-43
-2.48383e-44
-1.05506e-39
-1.28938e-39
-1.13723e-39
2.73631e-08
-6.62202e-11
1.20902e-11
2.51343e-23
4.84513e-24
-1.82291e-05
4.231e-08
2.03391e-09
-1.12062e-20
-6.6877e-22
1.19822e-09
9.42607e-09
3.35622e-12
-1.5385e-12
-1.82683e-18
-7.53036e-19
1.61773e-08
1.2044e-16
4.08911e-17
-5.41898e-12
-1.02596e-12
1.94633e-13
-9.49495e-15
-9.97918e-15
-5.75056e-16
2.26618e-16
3.63833e-17
3.5282e-19
-8.55238e-19
-9.67441e-20
2.46239e-21
1.14095e-21
1.51663e-22
9.21382e-25
-1.00259e-24
-1.50776e-25
-8.92679e-27
3.8311e-28
1.06335e-28
9.07924e-30
2.31853e-31
-3.4982e-32
-4.76357e-33
-3.04501e-34
-1.82687e-36
1.46768e-36
1.73864e-37
9.36059e-39
3.60953e-41
-3.31892e-41
5.63553e-11
-3.34777e-42
2.28913e-08
4.43539e-16
-7.29697e-17
-6.68515e-17
-1.41961e-13
5.25821e-13
-2.77232e-15
-2.37844e-14
3.89444e-08
0.935175
-3.37004e-39
-7.89801e-39
1.5055e-37
-0.00740284
6.00884e-09
0.96961
-1.51661e-28
-2.83316e-42
0.80381
-6.72775e-38
-6.17922e-34
4.2066e-32
1.1307e-30
7.24638e-28
4.56833e-28
0.0569193
-1.67434e-27
0.202537
-7.06793e-27
-1.97544e-25
7.9405e-26
-1.7522e-24
-2.12641e-22
1.6496e-21
1.56964e-20
-9.47493e-21
-5.19717e-19
-4.8392e-18
1.38655e-16
-1.41615e-16
-2.28819e-16
-3.69342e-15
-6.47409e-15
2.14224e-14
-4.41284e-14
8.47589e-14
4.42343e-14
-4.22456e-14
-1.02918e-12
-4.43385e-12
-6.55821e-12
3.05294e-11
1.89991e-10
7.30667e-10
2.11748e-09
4.60884e-09
8.61766e-09
8.04515e-10
-7.70533e-06
-2.00858e-05
-3.86166e-06
-1.58388e-39
7.04992e-05
3.36209e-06
0.266977
1.27718e-08
7.20706e-09
3.48823e-09
1.43924e-09
3.96249e-10
9.34179e-11
5.04789e-13
-8.13373e-12
-2.7251e-12
-1.73482e-13
-1.85126e-13
2.49724e-13
-7.3086e-14
1.96115e-14
-1.16113e-14
8.72914e-15
1.3626e-15
2.34673e-17
1.52429e-18
-3.42202e-41
-1.13246e-40
6.57911e-39
1.50022e-37
1.2989e-22
1.61811e-36
3.79089e-36
-2.21116e-34
-4.2816e-33
-4.16674e-32
6.16545e-32
7.30785e-30
1.03037e-28
5.98382e-28
-5.77355e-27
-1.3286e-25
9.65811e-09
5.12398e-09
2.33746e-09
7.85554e-10
2.00386e-10
2.96405e-11
-8.33581e-12
-4.94342e-12
-1.04896e-12
-3.93549e-14
8.10758e-14
7.77829e-14
-4.41248e-14
2.16413e-14
-5.98094e-15
-4.07499e-15
-2.79428e-16
-0.000567361
-0.00980062
-1.37508e-16
-5.46036e-18
-5.71251e-19
-1.98248e-20
1.72143e-20
2.12431e-21
-2.15994e-22
2.96143e-16
-4.26336e-24
4.18161e-25
-2.2622e-25
5.50838e-32
3.3833e-39
1.41769e-33
-1.07281e-41
-9.33336e-41
6.39395e-40
3.52181e-38
5.53599e-37
3.83379e-36
-2.45012e-35
-1.08302e-33
-1.50731e-32
-7.11825e-32
1.24965e-30
3.01979e-29
2.9615e-28
1.7815e-28
-3.34161e-26
-4.7352e-25
-3.78003e-17
-1.08187e-14
4.57784e-25
2.71455e-21
-1.99529e-24
-3.08496e-12
-3.08144e-19
-3.21993e-14
6.01501e-18
1.76222e-13
1.16436e-14
-1.74937e-18
-8.01401e-20
1.29e-21
4.74912e-22
-1.21032e-24
2.22564e-19
-2.88004e-20
-7.0655e-21
-9.1756e-23
8.27001e-23
-4.20032e-24
7.89923e-26
-5.7904e-31
-4.65136e-31
-1.88339e-32
-2.26619e-36
1.21591e-30
-1.06107e-26
5.85736e-17
-2.29251e-05
-4.05186e-12
0.000244632
1.00755
1.00503
1.00848
1.00124
1.00397
0.999701
1.00032
0.999651
0.999415
0.999888
0.999679
1.00001
0.99995
1.00002
1.00003
1.00001
1.00002
1
1
0.999999
0.999998
0.999999
0.999999
1
1
1
1
1
1
1
1
1
1
1
1
1
1
1
1
1
1
1
1
1
1
1
1
1
1
1
1
1
1
1
1
1
1
1
1
1
1
1
1
1
1
1
1
1
1
1
1
1
1
1
1
1
1
1
1
1
1
1
1
1
1
1
1
1
1
1
1
1
1
1
1
1
1
1
1
1
1
1
1
1
1
1
1
1
1
1
1
1
1
1
1
1
1
1
1
1
1
1
1
1
1
1
1
1
1
1
1
1
1
1
1
1
1
1
1
1
1
1
1
1
1
1
1
1
1
1
1
1
1
1
1
1
1
1
1
1
1
1
1
1
1
1
1
1
1
1
1
1
1
1
1
1
1
1
1
-3.23181e-19
-3.96238e-10
-1.96045e-39
-1.09166e-12
2.43398e-40
-4.59906e-44
1.69146e-30
1.09149e-24
-3.19271e-08
-1.97363e-28
7.33637e-24
5.32165e-24
-7.53575e-20
9.25058e-23
7.03663e-14
3.70028e-13
2.21238e-13
6.92467e-13
2.42966e-18
-8.53265e-15
1.15971e-17
9.77654e-18
2.1278e-13
5.17258e-13
2.26935e-13
3.49052e-17
3.56524e-17
6.10967e-25
-1.15385e-14
-1.84898e-14
-9.62904e-17
1.85937e-24
7.34637e-17
8.74745e-17
6.15168e-12
-3.08163e-12
-1.90788e-19
-4.39598e-19
-2.04367e-19
1.87396e-20
-4.27229e-19
2.21355e-08
-3.08946e-22
-1.56978e-36
2.94002e-23
8.86261e-23
2.53739e-23
2.54e-19
1.34789e-08
-1.72059e-25
-2.7553e-26
-1.80732e-27
3.43667e-29
1.62982e-29
1.52721e-30
5.29641e-32
-4.10918e-33
-8.09135e-34
-5.44513e-35
-1.11551e-35
-7.71574e-36
2.34693e-22
2.56857e-22
1.56272e-37
2.42745e-38
1.46633e-39
1.06539e-39
-9.04292e-11
0.568575
0.243387
2.96653e-08
-6.39053e-18
-2.44582e-16