/*--------------------------------*- C++ -*----------------------------------*\
  =========                 |
  \\      /  F ield         | OpenFOAM: The Open Source CFD Toolbox
   \\    /   O peration     | Website:  https://openfoam.org
    \\  /    A nd           | Version:  7
     \\/     M anipulation  |
\*---------------------------------------------------------------------------*/
FoamFile
{
    version     2.0;
    format      ascii;
    class       volScalarField;
    location    "0.3";
    object      T;
}
// * * * * * * * * * * * * * * * * * * * * * * * * * * * * * * * * * * * * * //

dimensions      [0 0 0 1 0 0 0];

internalField   nonuniform List<scalar> 
45544
(
0
0
0
0
0
0
0
0
0
0
0
0
0
0
0
0
0
0
0
0
0
0
0
0
0
0
0
0
0
0
0
0
0
0
0
0
0
0
0
0
0
0
0
0
0
0
0
0
0
0
0
0
0
0
0
0
0
0
0
0
0
0
0
0
0
0
0
0
0
0
0
0
0
0
0
0
0
0
0
0
0
0
0
0
0
0
0
0
0
0
0
0
0
0
0
0
0
0
0
0
0
0
0
0
0
0
0
0
0
0
0
0
0
0
0
0
0
0
0
0
0
0
0
0
0
0
0
0
0
0
0
0
0
0
0
0
0
0
0
0
0
0
0
0
0
0
0
0
0
0
0
0
0
0
0
0
0
0
0
0
0
0
0
0
0
0
0
0
0
0
0
0
0
0
0
0
0
0
0
0
0
0
0
0
0
0
0
0
0
0
0
0
0
0
0
0
0
0
0
0
0
0
0
0
0
0
0
0
0
0
6.11427e-40
-7.83066e-39
-1.57393e-34
-7.28896e-35
-2.31067e-31
1.21897e-30
-2.42662e-30
-1.643e-28
-5.26185e-28
-8.11965e-28
-6.16118e-28
-1.02619e-27
-9.43149e-28
-5.12339e-28
1.54374e-27
-1.05271e-26
-1.07465e-25
-9.65503e-26
1.26794e-25
2.23134e-25
3.19616e-25
9.32104e-25
6.79608e-25
3.27396e-25
1.23812e-24
4.01931e-24
5.92064e-24
6.83593e-24
7.69513e-24
2.89455e-24
-2.05684e-24
-4.94186e-24
-6.1461e-24
-6.53778e-24
-5.42667e-24
-3.03392e-24
-2.46476e-24
-1.63721e-24
-1.09309e-24
-5.96892e-25
-1.64919e-25
2.80158e-25
1.7795e-25
2.11369e-25
1.30992e-25
9.721e-26
6.90648e-26
4.84664e-26
2.92257e-26
1.21314e-26
7.38729e-27
4.25454e-27
1.77697e-27
5.3351e-28
-4.39338e-28
-2.9927e-28
-2.29824e-28
-2.37424e-28
-1.33378e-28
-7.89654e-29
-4.75935e-29
-2.5168e-29
-1.19088e-29
-6.62554e-30
-3.37447e-30
-1.02242e-30
-3.82455e-31
-1.62561e-31
-4.05176e-32
2.15334e-32
5.83224e-32
3.31537e-32
2.0329e-32
1.24377e-32
6.72791e-33
3.68235e-33
1.97098e-33
8.79069e-34
4.30603e-34
2.16874e-34
8.29258e-35
4.05163e-35
1.76945e-35
8.27355e-36
3.85046e-36
1.43835e-36
1.00871e-37
3.59158e-38
2.85443e-33
0
0
0
0
0
0
0
0
0
0
0
0
0
0
0
0
0
0
0
0
0
0
0
0
0
0
0
0
0
0
0
0
0
0
0
0
0
0
0
0
0
0
0
0
0
0
0
0
0
0
0
0
0
0
0
0
0
0
0
0
0
0
0
0
0
0
0
0
0
0
0
0
0
0
0
0
0
0
0
0
0
0
0
0
0
0
0
0
0
0
0
0
0
0
0
0
0
0
0
0
0
0
0
0
0
0
0
0
0
0
-1.39233e-124
-1.74041e-124
2.02591e-123
2.53238e-123
1.31259e-123
1.64038e-123
-2.2845e-120
-6.5883e-122
-3.11334e-117
-3.79863e-117
-2.06363e-117
-2.22454e-117
-1.35192e-117
-1.30921e-117
8.99241e-117
2.12744e-116
-7.06132e-115
3.33955e-114
-6.00612e-113
2.82274e-113
-3.68221e-112
1.68296e-112
-7.04614e-110
-6.1845e-110
-2.0104e-109
-2.27202e-109
-1.29121e-109
-1.43088e-109
-2.08054e-109
3.27639e-109
-2.30179e-108
-2.1574e-108
-3.14471e-108
-3.02681e-108
1.92193e-108
6.81858e-108
3.6827e-105
1.90367e-107
1.35561e-102
1.60036e-102
8.69581e-103
1.02511e-102
6.33956e-103
3.47129e-103
2.44485e-102
2.8941e-102
-1.48001e-101
-5.45369e-101
-2.70412e-97
-2.13046e-98
-7.86053e-95
-9.24044e-95
-4.80349e-95
-5.40382e-95
-4.34642e-94
1.34244e-93
-1.10193e-92
-1.01533e-92
-1.32157e-92
-1.4028e-92
-2.09346e-92
-1.51092e-92
-1.94348e-92
3.83019e-94
-1.29883e-91
-1.47766e-91
-1.05809e-91
-1.70943e-92
-2.70272e-91
-2.38955e-91
-1.82384e-91
-1.61791e-91
-1.24114e-91
-1.11879e-91
-9.98523e-92
-2.35914e-92
-5.73085e-91
-5.24126e-91
-3.49487e-90
-3.97077e-90
-1.52884e-89
-1.66211e-89
-1.00819e-89
-1.10771e-89
-6.64156e-90
-7.18062e-90
-1.88303e-89
-1.62011e-89
-3.83806e-89
-4.20547e-89
-2.37651e-89
-2.40796e-89
-7.45877e-89
1.79528e-88
-5.83267e-88
-3.11525e-88
-5.11049e-88
-1.58597e-88
-4.10811e-88
-1.01465e-88
-4.41654e-88
2.83385e-88
-5.73634e-87
-4.48295e-87
-4.19446e-86
-2.30183e-86
-3.04436e-86
-1.73475e-86
-2.2614e-86
-1.37225e-86
-1.65792e-86
-9.41591e-87
-8.81272e-86
-5.38662e-86
-1.78936e-85
-1.81493e-85
-1.16457e-85
-1.152e-85
-8.76313e-86
-4.37606e-86
-1.50629e-85
-1.07873e-85
-1.56575e-85
-1.39585e-85
-1.77271e-85
-1.21072e-85
-1.48426e-85
-1.58231e-87
-2.08794e-85
-1.14924e-85
-4.23381e-85
-4.28651e-86
-3.20545e-85
-8.28233e-86
-4.63142e-85
-3.86758e-85
-3.18187e-85
-2.72922e-85
-2.29815e-85
-1.69924e-85
-6.96751e-85
-7.29341e-85
-4.3872e-85
-4.44633e-85
-4.29497e-85
2.10053e-85
-1.21672e-84
-5.35843e-85
-1.38193e-84
-1.03465e-84
-1.5912e-84
-9.4307e-85
-1.39034e-84
2.089e-85
-1.73044e-84
-5.79003e-85
-1.82422e-84
1.23401e-84
-2.58065e-84
-9.06506e-85
-2.47033e-84
-1.56687e-84
-1.81371e-84
-1.03608e-84
-1.70584e-84
-1.28559e-84
-1.56604e-84
-1.37638e-84
-1.2746e-84
-2.49451e-85
-2.58936e-84
-2.40729e-84
-1.72857e-84
-1.35708e-84
-1.15749e-84
-9.35195e-85
-1.92817e-84
-1.43708e-84
-2.87383e-84
-2.95031e-84
-1.85146e-84
-1.88515e-84
-1.18254e-84
-1.04774e-84
-1.05478e-84
-1.02926e-84
-8.7878e-85
-8.98757e-85
-8.25236e-85
-7.83157e-85
-5.55872e-85
-4.3798e-85
-3.78113e-85
-3.11925e-85
-2.57776e-85
-1.85672e-85
-1.65292e-85
-1.20553e-85
-2.32235e-85
-2.24963e-85
-1.51626e-85
-1.48036e-85
-2.01271e-85
-1.82705e-85
-2.70071e-85
-2.89375e-85
-1.62091e-85
-1.69582e-85
-1.11394e-85
-9.19826e-86
-1.23636e-85
-1.04213e-85
-1.09747e-85
-1.04142e-85
-8.67769e-86
-6.92865e-86
-6.69398e-86
-3.34387e-86
-1.49014e-85
-1.44482e-85
-9.84996e-86
-9.27702e-86
-9.67288e-86
-8.60961e-86
-8.9075e-86
-8.79487e-86
-5.94482e-86
-5.83446e-86
-4.23984e-86
-3.3567e-86
-1.02883e-85
-1.06792e-85
-6.37402e-86
-6.47959e-86
-4.5344e-86
-3.06063e-86
-4.78467e-86
-3.79813e-86
-4.03993e-86
-3.69546e-86
-2.9809e-86
-2.77544e-86
-1.97588e-86
-1.70851e-86
-2.48651e-86
-2.68068e-86
-1.60013e-86
-1.54623e-86
-1.34035e-86
-1.33813e-86
-8.88836e-87
-8.9826e-87
-6.02708e-87
-6.12263e-87
-3.81509e-87
-3.83381e-87
-3.30515e-87
-3.56248e-87
-2.95964e-87
-2.90321e-87
-1.89155e-87
-1.83715e-87
-1.43399e-85
-3.83929e-86
1.03941e-81
-1.40338e-82
7.23165e-80
7.36687e-81
2.28852e-79
2.2994e-79
1.49285e-79
1.38671e-79
-7.25525e-79
-1.10279e-78
-1.3031e-75
-7.10864e-76
-5.56867e-73
-3.62249e-73
-2.47884e-71
-2.14066e-71
-2.43203e-71
4.99982e-71
-8.99223e-70
4.22505e-69
2.92246e-69
2.25531e-69
-5.36013e-66
-1.11664e-31
-1.42233e-29
8.53859e-28
-1.37868e-25
3.57397e-24
2.56287e-22
4.29969e-21
3.21158e-20
1.30172e-19
3.46709e-19
6.16246e-19
8.52253e-19
1.02814e-18
1.14669e-18
1.2463e-18
1.36668e-18
1.53e-18
1.63101e-18
1.55468e-18
1.29722e-18
9.4524e-19
6.02545e-19
3.35654e-19
1.70483e-19
7.69475e-20
3.12678e-20
1.16474e-20
3.63219e-21
8.86177e-22
1.59849e-22
1.87842e-23
1.29711e-24
2.89097e-26
-1.39741e-27
-7.44586e-29
1.39629e-30
3.0626e-32
-1.36e-33
1.24562e-35
-4.34887e-37
6.95817e-39
-8.00246e-41
1.68096e-42
-7.65875e-45
-1.02037e-46
-3.49526e-50
-9.33624e-54
4.30787e-57
1.84498e-61
-1.82442e-05
-2.69343e-05
-4.02453e-05
1.43429e-05
8.0814e-06
-9.2157e-06
5.19929e-06
-2.11127e-05
-7.89365e-06
-2.83885e-05
-2.45338e-05
-1.39073e-05
-4.07133e-05
1.26922e-05
-1.5449e-05
1.41959e-05
-1.42079e-05
-6.10735e-05
-3.62404e-05
-0.000255602
-0.000178395
-0.000514441
-0.000461941
-0.000729817
-0.000884993
-0.000631748
-0.00135403
0.000230238
-0.00165097
0.00220146
-0.00161523
0.00573711
-0.000725314
0.0113528
0.000984138
0.0197752
0.0039976
0.0302663
0.00862236
0.0523398
0.0919022
0.0767833
0.0922052
0.102302
0.0838274
0.0949079
0.0873198
0.0919059
0.088416
0.0951831
0.08865
0.0957035
0.0873305
0.0950158
0.0862618
0.0934801
0.0860339
0.0929292
0.0876459
0.0937574
0.0882354
0.0949957
0.0875044
0.0949026
0.086986
0.0940908
0.0877965
0.0941275
0.0873477
0.0945736
0.0866348
0.0939748
0.0864407
0.0929927
0.0916795
0.0981733
0.0629438
0.0838965
-4.29357e-06
-3.30608e-06
-4.51229e-06
8.13353e-06
-1.09909e-06
-0.00038222
-0.000872647
0.000495558
0.00690808
0.0222308
1.86911e-05
-3.97342e-06
-6.94931e-06
-4.06855e-06
-4.25825e-06
-4.76881e-06
-4.69506e-06
-2.54498e-06
-9.14373e-06
1.57712e-05
9.46169e-34
0
0
0
0
0
0
0
0
0
0
6.52534e-42
6.53149e-40
-5.05319e-37
-4.81296e-34
-5.22985e-34
-5.7305e-32
1.23315e-31
1.1564e-29
-3.26059e-28
-5.746e-28
-7.02069e-28
-5.69605e-28
-9.25711e-28
-9.48556e-28
1.33728e-27
-1.53735e-28
4.67245e-27
-7.0717e-26
1.39292e-25
1.14149e-25
5.90526e-26
4.39498e-25
6.79854e-25
-1.67771e-26
-7.33197e-25
2.39419e-24
5.11933e-24
7.45612e-24
6.57955e-24
7.01185e-24
6.41118e-25
-3.25072e-24
-4.50276e-24
-7.36502e-24
-6.48007e-24
-4.55874e-24
-2.80515e-24
-1.96748e-24
-1.40478e-24
-8.04913e-25
-2.95914e-25
-2.67976e-26
2.08252e-25
1.6335e-25
1.7437e-25
1.12188e-25
8.27495e-26
5.94044e-26
3.6768e-26
2.34407e-26
9.29126e-27
5.68144e-27
2.87532e-27
8.51215e-28
2.69241e-28
-3.37666e-28
-2.58488e-28
-2.149e-28
-1.78395e-28
-1.08392e-28
-5.82928e-29
-3.7599e-29
-1.90425e-29
-9.46435e-30
-4.87355e-30
-2.44573e-30
-5.94704e-31
-2.59964e-31
-8.87647e-32
1.88828e-32
2.39234e-32
4.14454e-32
2.81025e-32
1.49316e-32
9.09158e-33
4.83334e-33
2.62907e-33
1.33393e-33
6.27759e-34
3.01873e-34
1.47217e-34
5.78999e-35
2.71794e-35
1.24142e-35
5.26354e-36
2.27373e-36
9.13912e-37
5.63493e-38
0
-3.738e-35
0
-1.52943e-31
1.96761e-30
-6.68805e-66
3.5739e-30
1.01481e-28
-1.36026e-26
-3.06698e-25
4.22817e-23
1.19534e-21
1.23911e-20
6.95931e-20
2.21541e-19
4.78267e-19
7.41128e-19
9.446e-19
1.09395e-18
1.19648e-18
1.29724e-18
1.44866e-18
1.59283e-18
1.61587e-18
1.44328e-18
1.12762e-18
7.69128e-19
4.60578e-19
2.43439e-19
1.16023e-19
4.99244e-20
1.94799e-20
6.7157e-21
1.88477e-21
3.92421e-22
6.06774e-23
5.3545e-24
2.3931e-25
-4.87031e-28
-4.20896e-28
-3.85253e-30
3.95307e-31
-3.36068e-33
-7.55926e-35
-4.23568e-37
-2.14852e-38
7.2397e-40
2.08769e-42
-1.09614e-43
1.7693e-45
2.36344e-48
4.12335e-51
-1.95403e-55
1.99894e-58
-3.63154e-06
-2.26884e-62
0.0194441
0.0414492
0.0513884
5.00042e-06
-9.79046e-06
2.00265e-07
1.73511e-05
-0.000147919
-0.000694374
-0.000621879
0.00291259
0.0130683
-1.3137e-07
0.0329753
1.02569e-05
-6.33437e-06
-5.53052e-06
-4.12644e-06
-4.51849e-06
-4.43139e-06
-4.92068e-06
-1.92187e-06
4.57683e-06
-7.9011e-07
0
0
0
0
0
0
0
0
0
-1.9342e-42
-8.81513e-40
4.46562e-39
-6.04259e-34
-4.37169e-33
-7.24107e-31
5.47226e-30
7.83189e-29
5.33341e-28
4.66358e-28
2.38059e-28
1.9101e-28
3.88556e-28
-8.31227e-29
-9.57779e-27
6.55355e-27
1.93466e-26
-5.21001e-26
-6.18635e-25
-6.52783e-25
1.10473e-25
-1.87058e-24
-4.23024e-25
1.04359e-24
-4.90356e-25
-4.07227e-24
-7.66335e-24
-1.07302e-23
-1.20097e-23
-3.41717e-26
7.17802e-24
4.64214e-24
6.88126e-24
5.72968e-24
3.25833e-24
3.02093e-24
1.91471e-24
1.57827e-24
5.2929e-25
4.17528e-25
1.98749e-25
-2.25808e-25
1.58818e-25
4.6215e-26
5.96562e-26
8.47035e-27
-7.09326e-27
4.69955e-28
-5.92549e-28
3.67752e-27
-2.50141e-27
-1.20057e-27
-4.09171e-28
-7.90064e-28
1.98317e-28
-3.76986e-28
-2.46563e-28
-2.2953e-29
-8.57877e-29
-4.3285e-29
-1.39058e-29
-1.1495e-29
-4.71183e-30
-1.28967e-30
-6.25299e-31
-8.91524e-31
3.83006e-31
3.82397e-32
-4.79882e-33
7.13873e-32
1.53263e-32
4.39752e-32
2.82294e-32
1.10048e-32
7.92458e-33
3.8314e-33
2.21866e-33
1.17375e-33
4.48108e-34
2.25314e-34
1.0886e-34
3.43799e-35
1.68443e-35
7.01803e-36
2.86919e-36
1.26093e-36
5.71159e-37
-1.09046e-37
1.04826e-35
1.33655e-27
-2.78762e-25
9.61869e-24
5.5357e-22
7.87496e-21
5.43151e-20
1.99895e-19
4.89279e-19
8.11388e-19
1.07015e-18
1.26237e-18
1.39378e-18
1.5049e-18
1.67182e-18
1.85881e-18
1.94593e-18
1.79054e-18
1.4414e-18
1.01244e-18
6.24766e-19
3.36581e-19
1.65664e-19
7.21555e-20
2.8517e-20
1.0192e-20
2.99916e-21
6.61506e-22
1.078e-22
1.02148e-23
5.33486e-25
2.40599e-27
-8.32159e-28
-1.39676e-29
8.24133e-31
-3.71447e-33
-2.28314e-34
3.50432e-37
-6.8166e-38
1.80017e-39
-5.9009e-43
-2.04979e-43
3.98512e-45
5.2128e-48
8.501e-51
-4.51238e-55
4.45701e-58
-6.34965e-62
7.75974e-06
2.17305e-06
-1.58485e-06
1.78465e-05
-9.46443e-06
-0.00053971
-0.00144602
-0.00129542
0.0024973
0.0142041
-9.54293e-06
-1.21919e-05
-1.01403e-05
-1.06725e-05
-1.05315e-05
-1.02576e-05
-1.07975e-05
-1.07472e-05
-1.9759e-05
5.58933e-06
0
0
0
0
0
0
0
0
0
3.02831e-40
-9.66666e-39
-1.74128e-34
-1.28523e-33
-6.59038e-32
-4.05375e-30
1.70136e-29
6.11483e-28
7.98023e-28
-9.61732e-29
2.3554e-28
2.52212e-28
1.62852e-28
-2.41053e-27
-4.80287e-28
2.71943e-26
3.18887e-25
-4.64614e-25
-2.88571e-25
-6.98453e-25
-1.36772e-24
-1.6544e-24
9.32384e-25
9.34302e-25
-4.19566e-24
-9.04871e-24
-7.57124e-24
-9.7014e-24
-7.40545e-24
5.38447e-24
3.15122e-24
5.18192e-24
8.17206e-24
4.09619e-24
2.50943e-24
2.4621e-24
1.67111e-24
5.62976e-25
1.32775e-25
-3.20715e-26
-1.38664e-25
2.32444e-25
3.27484e-26
7.53005e-26
2.23266e-26
-5.28548e-27
-3.21512e-28
3.37395e-27
2.60366e-27
-1.70717e-27
-1.34866e-27
2.96063e-28
-3.69322e-28
5.90636e-30
-6.20111e-28
-3.07568e-28
-7.2893e-29
-1.23751e-28
-5.80369e-29
-2.48384e-29
-1.29087e-29
-6.7695e-30
-1.06675e-30
-1.10395e-30
-1.0988e-30
2.1041e-31
4.06052e-32
-4.49626e-32
1.44293e-32
3.24895e-32
6.31875e-32
3.06611e-32
1.51679e-32
1.05595e-32
5.35867e-33
3.1478e-33
1.75009e-33
6.66342e-34
3.24531e-34
1.62434e-34
4.85881e-35
2.49105e-35
9.54978e-36
4.69084e-36
2.27264e-36
8.2002e-37
-1.67124e-37
-1.36509e-37
9.63088e-23
2.39478e-21
2.20055e-20
1.10947e-19
3.29808e-19
6.53771e-19
9.53226e-19
1.17733e-18
1.34028e-18
1.44627e-18
1.57966e-18
1.76687e-18
1.92387e-18
1.89845e-18
1.6345e-18
1.22625e-18
8.10124e-19
4.6337e-19
2.39481e-19
1.09916e-19
4.58521e-20
1.75386e-20
5.71268e-21
1.44795e-21
2.77101e-22
3.47365e-23
2.64859e-24
7.40349e-26
-2.35246e-27
-1.67641e-28
2.1899e-30
8.40761e-32
-2.87225e-33
2.57613e-35
-8.94314e-37
1.3575e-38
-1.75592e-40
3.94464e-42
-2.13186e-44
-2.22885e-46
-8.54618e-50
-1.60842e-53
7.96365e-57
6.70525e-61
-2.69625e-65
5.09773e-06
-2.50259e-07
1.4982e-05
4.40214e-05
-0.000159974
-0.000971796
-0.00162893
1.74056e-05
0.00684388
0.0311693
-1.26889e-05
-1.06256e-05
-1.06138e-05
-1.00931e-05
-1.03186e-05
-1.04415e-05
-1.11654e-05
-8.90138e-06
-6.95284e-06
1.84058e-06
0
-3.12204e-29
-3.22229e-25
-3.43311e-26
2.70179e-28
4.79124e-06
0
0
0
0
0
0
0
0
0
0
0
0
0
0
0
0
0
0
0
0
0
0
0
0
0
0
0
0
0
0
0
0
0
0
0
0
0
0
0
0
0
0
0
0
0
0
0
0
0
0
0
0
0
0
0
0
0
0
0
0
0
0
0
0
0
0
0
0
0
0
0
0
0
0
0
0
0
0
0
0
0
0
0
0
0
0
0
0
0
0
0
0
0
0
0
0
0
0
0
0
0
0
0
0
0
0
0
0
0
0
0
0
0
0
0
0
0
0
0
0
0
0
0
0
0
0
0
0
0
0
0
0
0
0
0
0
0
0
0
0
0
0
0
0
0
0
0
0
0
0
0
0
0
0
0
0
0
0
0
0
0
0
0
0
0
0
0
0
0
0
0
0
0
0
0
0
0
0
0
0
0
0
0
0
0
0
0
0
0
0
0
0
0
0
0
0
-3.50485e-29
4.05155e-30
8.26156e-30
1.40632e-27
0
0
0
0
0
0
0
1.65851e-39
3.53951e-37
-5.98151e-35
-1.75832e-32
5.90835e-31
5.30232e-29
-1.45992e-29
-2.82008e-27
-1.88997e-26
-2.24082e-26
-2.36928e-26
-2.20564e-26
-2.728e-26
-1.64976e-26
5.66318e-26
-2.84922e-25
-1.07552e-24
-3.411e-24
-1.05621e-23
-2.63328e-24
2.58661e-24
3.73175e-23
3.02544e-23
2.33245e-23
6.67672e-23
8.10706e-23
1.01156e-22
1.23688e-22
-5.48954e-24
-1.43667e-22
-2.09199e-22
-2.27721e-22
-2.06001e-22
-5.95452e-23
-3.70494e-23
-5.71489e-24
3.00313e-23
2.05639e-23
2.96929e-23
2.46196e-23
2.03532e-23
1.46016e-23
1.05694e-23
6.64582e-24
3.79246e-24
2.18339e-24
7.72554e-25
3.9869e-25
7.14698e-26
-2.18777e-25
-1.85998e-25
-1.33272e-25
-1.01125e-25
-6.3861e-26
-3.71725e-26
-2.37397e-26
-1.43579e-26
-4.75216e-27
-2.64537e-27
-1.16709e-27
-9.43746e-29
1.47107e-28
1.11378e-28
9.43633e-29
7.35869e-29
5.82204e-29
3.39482e-29
2.0352e-29
1.08918e-29
5.87889e-30
2.78747e-30
1.42096e-30
6.84029e-31
2.67965e-31
1.31999e-31
5.02816e-32
2.5066e-32
1.27885e-32
1.73725e-33
7.64845e-34
-2.4695e-35
-4.49494e-34
-1.66924e-34
-1.46974e-34
-7.27386e-35
-3.6794e-35
-3.09254e-35
-1.91569e-35
1.16453e-33
1.17026e-22
0
1.70821e-33
0
0
0
0
0
0
0
0
0
0
0
0
0
0
0
0
0
0
0
0
0
0
0
0
0
0
0
0
0
0
0
0
0
0
0
0
0
0
0
0
0
0
0
0
0
0
0
0
0
0
0
0
0
0
0
0
0
0
0
0
0
0
0
0
0
0
0
0
0
0
0
0
0
0
0
0
0
0
0
0
0
0
0
0
0
0
0
0
0
0
0
0
0
0
0
0
0
0
0
0
0
0
0
0
0
0
0
0
0
0
-7.07882e-123
-8.81025e-123
1.70135e-121
2.13943e-121
1.07569e-121
1.36506e-121
-1.88138e-118
2.38507e-121
-2.56519e-115
-3.22375e-115
-9.1636e-115
3.48838e-114
-1.15003e-114
1.51825e-114
-1.425e-113
-5.24456e-114
-9.96929e-112
-1.29455e-111
-3.3786e-110
1.50158e-109
-9.799e-110
1.06704e-109
-9.25499e-108
-9.75476e-108
-9.15168e-108
-8.59809e-108
-7.3832e-108
-4.84472e-108
-2.41972e-106
-2.4806e-106
-3.0432e-106
-3.13971e-106
-3.51586e-106
2.57025e-106
8.74039e-106
1.58019e-105
4.95354e-103
3.87725e-103
7.23952e-101
7.91088e-101
5.32832e-101
2.99909e-101
3.48077e-100
2.84168e-100
2.55152e-100
6.64366e-101
7.7344e-98
-7.91965e-99
2.20044e-95
3.84576e-95
-3.42499e-93
-3.71898e-93
-6.03246e-93
-5.10152e-94
-7.4057e-91
-7.83241e-91
-1.52027e-90
-1.64132e-90
-1.0452e-90
-9.65483e-91
-3.89909e-90
-1.23245e-90
-8.24965e-90
-8.11143e-90
-5.73517e-90
-5.05883e-90
-3.77849e-89
-4.02496e-89
-3.39892e-89
-3.69616e-89
-2.21747e-89
-2.46837e-89
-1.50455e-89
-1.19402e-89
-3.90606e-89
-3.872e-89
-7.45245e-89
-7.34277e-89
-1.44412e-88
-1.53469e-88
-8.33845e-88
-7.29856e-88
-5.38808e-88
-4.95668e-88
-3.72481e-88
-3.153e-88
-1.89455e-87
-1.88667e-87
-1.58352e-87
-1.22417e-87
-1.69281e-87
1.25341e-88
-4.5744e-86
-2.74444e-86
-7.4349e-86
-4.96495e-86
-8.37446e-86
5.55092e-86
-7.3928e-86
3.22631e-86
-1.34115e-85
-6.91287e-86
-4.18084e-85
4.4611e-85
-4.65629e-84
-4.18179e-84
-3.27156e-84
-2.19956e-84
-2.33147e-84
-1.37474e-84
-1.71946e-84
-8.51678e-85
-8.55089e-84
-7.77782e-84
-7.01597e-84
-6.36719e-84
-4.79484e-84
-4.19916e-84
-9.85255e-84
-8.12508e-84
-1.25097e-83
-1.15541e-83
-8.80786e-84
-6.73651e-84
-1.52436e-83
-3.80038e-84
-2.66589e-83
-2.28139e-83
-2.25331e-83
-5.27893e-84
-7.06915e-83
-7.43225e-83
-4.51956e-83
-4.35332e-83
-2.94232e-83
-2.81815e-83
-1.9273e-83
-1.69576e-83
-1.73224e-83
-1.60616e-83
-2.35791e-83
-2.31743e-83
-1.67222e-83
-1.27391e-83
-9.45451e-83
-7.05341e-83
-1.29135e-82
-1.04603e-82
-9.18104e-83
-6.48942e-83
-1.33466e-82
-3.00826e-83
-2.37832e-82
-1.98522e-82
-2.04277e-82
-1.80089e-83
-4.16793e-82
-3.83756e-82
-2.82033e-82
-2.4342e-82
-1.88732e-82
-1.59283e-82
-1.5544e-82
-1.21782e-82
-1.11204e-82
-8.18086e-83
-7.73423e-83
-5.09295e-83
-1.67979e-82
-1.58392e-82
-1.14049e-82
-8.10517e-83
-1.08505e-82
-1.00162e-82
-7.08882e-83
-6.12968e-83
-1.36233e-82
-1.29202e-82
-9.79071e-83
-9.5037e-83
-6.39707e-83
-6.39899e-83
-6.14279e-83
-5.9631e-83
-4.46993e-83
-4.32858e-83
-3.19348e-83
-1.89452e-83
-3.86266e-83
-3.48168e-83
-3.88961e-83
-4.09663e-83
-2.55388e-83
-2.69311e-83
-2.12849e-83
-2.34048e-83
-1.26302e-83
-1.30809e-83
-1.11283e-83
-1.21917e-83
-6.84292e-84
-7.34415e-84
-1.15968e-83
-1.19453e-83
-8.5898e-84
-8.70369e-84
-5.31675e-84
-5.23499e-84
-7.26838e-84
-6.52023e-84
-7.64765e-84
-7.24938e-84
-5.13128e-84
-4.6066e-84
-5.51723e-84
-2.10777e-84
-6.66952e-84
-5.37725e-84
-6.04379e-84
-3.34349e-84
-4.19419e-84
-2.47584e-84
-4.6947e-84
-3.02747e-84
-3.24282e-84
-2.10263e-84
-2.23378e-84
-1.50792e-84
-2.52609e-84
-2.01023e-84
-3.2186e-84
-3.17127e-84
-2.06563e-84
-1.97732e-84
-3.37594e-84
-3.0672e-84
-2.93577e-84
-2.86619e-84
-1.86926e-84
-1.87134e-84
-1.31499e-84
-1.15674e-84
-1.0491e-84
-1.06631e-84
-6.75651e-85
-6.52035e-85
-6.43221e-85
-5.95891e-85
-4.95392e-85
-4.775e-85
-3.16688e-85
-3.19341e-85
-2.17404e-85
-2.28696e-85
-1.3931e-85
-1.43312e-85
-9.16377e-86
-8.1091e-86
-1.2385e-85
-1.28009e-85
-7.91365e-86
-8.02518e-86
-7.73309e-84
-1.71453e-85
1.57419e-79
-9.71565e-81
8.56173e-78
5.08792e-78
1.16386e-77
-2.3462e-77
1.84875e-77
-2.14796e-77
-5.05216e-76
-7.50489e-76
-6.2402e-74
-7.08771e-74
-1.93975e-71
2.23035e-72
-1.56679e-69
-1.38684e-69
-4.30948e-68
-3.9709e-68
-1.99276e-66
-2.30328e-66
-1.42687e-66
-2.97405e-65
-1.64141e-66
-3.2115e-25
2.38716e-05
7.55824e-06
1.6746e-05
-3.30454e-25
-6.68452e-25
3.23238e-28
-7.62092e-29
8.06721e-28
1.19033e-23
2.36509e-25
3.04861e-23
-4.1704e-26
-1.04564e-25
2.86573e-21
2.62763e-20
1.3206e-19
3.92443e-19
7.77865e-19
1.13357e-18
1.39984e-18
1.59666e-18
1.71736e-18
1.87946e-18
2.09873e-18
2.28563e-18
2.25651e-18
1.93882e-18
1.45385e-18
9.614e-19
5.50568e-19
2.84308e-19
1.3044e-19
5.43663e-20
2.07569e-20
6.75731e-21
1.72009e-21
3.2917e-22
4.14362e-23
3.17348e-24
9.05797e-26
-2.7207e-27
-2.00032e-28
2.42611e-30
1.02817e-31
-3.35993e-33
2.80256e-35
-1.0223e-36
1.55203e-38
-1.98764e-40
4.55186e-42
-2.47667e-44
-2.53878e-46
-9.6499e-50
-1.61912e-53
8.75616e-57
8.25794e-61
-6.55352e-62
-1.49388e-61
-8.30864e-65
-4.22168e-06
-4.25748e-06
0.0352788
5.38034e-05
9.93936e-06
4.09176e-05
-3.20588e-05
3.03041e-06
-4.98041e-05
-2.22439e-05
-1.51108e-05
-7.56954e-06
6.5402e-05
5.10079e-05
9.65491e-05
0.000123431
4.45976e-05
0.000152744
-0.000139662
8.36368e-05
-0.000368246
-6.1412e-05
-0.000559674
-0.000240141
-0.000611155
-0.000417604
-0.000341593
-0.000481791
0.000317822
-0.000365366
0.0013511
-0.000145146
0.00285541
0.000337573
0.00450462
0.000890676
0.00649917
0.00116702
0.0570982
0.128343
0.115879
0.134285
0.112636
0.122409
0.116949
0.123788
0.117398
0.126629
0.116045
0.125894
0.114189
0.123963
0.113754
0.122644
0.114841
0.123214
0.116374
0.124522
0.116016
0.125409
0.115226
0.124653
0.115316
0.124326
0.115725
0.124772
0.115338
0.124664
0.113149
0.12262
0.121497
0.127572
0.108082
0.0909752
0.12559
0
-3.37656e-05
1.52595e-05
9.47307e-05
-0.000184983
-0.000619392
-0.000211327
0.00189852
0.00567394
0.0171223
6.55287e-06
1.96403e-05
-1.36957e-05
-5.36488e-06
3.88603e-06
3.93267e-07
-1.05664e-06
-6.94579e-07
7.65324e-09
-5.37712e-07
-1.13847e-06
1.57382e-06
-9.79172e-06
5.57786e-06
0
0
0
-1.53906e-05
2.93512e-05
-2.02481e-05
0.0958974
0.121949
0.0676576
-6.687e-06
-4.88984e-06
0.0102722
0.000746434
-3.08928e-06
2.06195e-06
1.9256e-33
0
0
-2.57667e-31
1.49266e-27
0
-1.71707e-31
0
0
0
0
0
0
2.27976e-42
8.08647e-38
-5.90993e-37
-1.43654e-32
-3.48387e-32
-1.88389e-29
2.16697e-28
-9.46565e-29
-1.4762e-26
-2.45717e-26
-2.18182e-26
-2.24782e-26
-2.88182e-26
-2.42597e-26
-1.23452e-25
3.96705e-26
-2.76925e-25
-4.31929e-24
-4.49985e-24
-1.38371e-23
-1.03581e-23
3.02838e-23
1.81123e-23
3.08529e-24
5.03925e-24
4.76263e-23
1.40479e-22
8.03359e-23
1.30351e-23
-1.06352e-22
-1.35487e-22
-2.45771e-22
-1.97975e-22
-1.00622e-22
-5.52058e-23
-5.13452e-24
4.09816e-23
2.49061e-23
3.28455e-23
2.84327e-23
2.42531e-23
1.81427e-23
1.28961e-23
7.9635e-24
4.51782e-24
3.08765e-24
1.0006e-24
6.02275e-25
1.25664e-25
-2.15745e-25
-2.30998e-25
-1.51069e-25
-1.28172e-25
-8.21847e-26
-4.99981e-26
-3.0297e-26
-1.86055e-26
-8.28145e-27
-3.72676e-27
-1.86651e-27
-1.02043e-28
-1.019e-28
1.18651e-28
1.07321e-28
9.37218e-29
7.62359e-29
4.50377e-29
2.72086e-29
1.52102e-29
7.96095e-30
4.09768e-30
2.02286e-30
9.43289e-31
4.02036e-31
1.8538e-31
6.98775e-32
3.46305e-32
1.88177e-32
4.63398e-33
1.09308e-33
-1.09123e-35
-6.94953e-34
-2.83151e-34
-2.2807e-34
-1.02169e-34
-5.65686e-35
-3.45583e-35
-2.29015e-35
-5.22176e-35
0
0
0
0
0.000698473
6.68254e-22
9.39399e-21
6.46233e-20
2.38364e-19
5.81988e-19
9.65703e-19
1.2726e-18
1.50206e-18
1.65962e-18
1.78829e-18
1.98793e-18
2.20859e-18
2.3128e-18
2.12454e-18
1.71042e-18
1.1996e-18
7.42429e-19
3.99967e-19
1.966e-19
8.54619e-20
3.38019e-20
1.20839e-20
3.55377e-21
7.84962e-22
1.27841e-22
1.21989e-23
6.44095e-25
3.35278e-27
-9.84592e-28
-1.7455e-29
9.68247e-31
-3.91884e-33
-2.82378e-34
5.37393e-37
-8.06913e-38
2.1265e-39
-1.1786e-42
-2.3068e-43
4.56942e-45
5.90425e-48
9.6522e-51
-5.25392e-55
5.04918e-58
0
-2.59e-06
0.014647
0.0333148
1.34151e-06
0
-3.43787e-05
6.53837e-05
-1.87379e-06
-0.000471013
-0.000608667
0.000633834
0.00365214
0.00025093
0.0092047
4.30032e-06
-1.2429e-06
-6.86042e-08
-1.74017e-07
4.20543e-06
5.41664e-06
-2.41132e-07
-2.92314e-07
-6.03177e-07
-2.76855e-06
-5.03787e-06
1.55197e-06
1.35667e-06
0
1.88918e-35
0
-2.69146e-05
4.61014e-06
3.56619e-06
4.66606e-06
4.35864e-06
0.000523618
-0.000182637
-0.000536862
-0.000358464
1.1262e-05
0.000111074
2.18569e-60
1.56256e-56
-2.56127e-53
-2.20946e-49
-5.54162e-46
-6.59724e-44
1.0249e-41
-4.14503e-40
2.78247e-38
-1.92666e-36
5.12298e-35
-6.93501e-33
2.57597e-31
2.93943e-30
-4.23989e-28
-4.25189e-27
2.08686e-25
6.20272e-24
7.62278e-23
5.50668e-22
2.78303e-21
1.01869e-20
3.00485e-20
7.80882e-20
1.84695e-19
3.90384e-19
7.45081e-19
1.25847e-18
1.86169e-18
2.38292e-18
2.68684e-18
2.65397e-18
2.39406e-18
2.14808e-18
1.98188e-18
1.81857e-18
1.5756e-18
1.24385e-18
7.98144e-19
3.56104e-19
1.65852e-33
-1.3231e-37
-3.41455e-35
-5.14567e-35
-1.04025e-34
-2.17182e-34
-3.64639e-34
-9.04199e-34
-8.25977e-34
-8.47313e-34
-2.39971e-33
5.06519e-33
7.06886e-33
8.13013e-33
4.33877e-32
7.3738e-32
3.35797e-31
7.33644e-31
1.34484e-30
3.67183e-30
6.68814e-30
1.24772e-29
2.1495e-29
4.0022e-29
6.135e-29
7.30457e-29
6.98626e-29
4.00971e-28
4.69531e-28
1.59499e-29
2.43384e-28
4.3392e-28
-2.97363e-27
-4.84147e-27
-2.8517e-27
-1.34805e-26
-4.24578e-26
-3.60767e-26
-8.23163e-26
-1.50725e-25
-1.42451e-25
-1.19543e-25
-2.05599e-25
-9.95581e-25
-1.24778e-24
-2.31038e-24
-3.23901e-24
-7.15249e-24
-6.51282e-24
1.04077e-24
-9.89294e-25
1.16994e-23
2.61173e-23
2.69039e-23
2.79259e-23
1.02904e-22
1.15507e-22
1.66231e-22
2.42879e-22
2.799e-22
1.57027e-22
-1.11447e-36
8.84683e-40
-2.73817e-23
-1.3609e-22
-1.74349e-22
-1.60162e-22
-5.75026e-23
-4.46257e-23
-1.35795e-23
-7.14151e-23
-1.35836e-23
2.71673e-23
1.64752e-23
4.65895e-24
1.12686e-24
8.80084e-26
1.92536e-27
1.74574e-26
1.73024e-26
1.47854e-26
1.81911e-26
2.0103e-26
1.56414e-26
8.18277e-28
-2.20938e-28
7.65868e-31
3.84896e-32
7.52381e-07
-2.72457e-06
7.29629e-06
4.61816e-06
4.48332e-06
4.47843e-06
4.3713e-06
0.00686652
0.000436758
0.000336029
-0.000472659
-0.000514342
-0.000140112
8.78953e-06
1.07964e-57
-1.20678e-54
2.01087e-50
1.27699e-47
1.03796e-44
-3.92514e-43
-1.59205e-41
5.28503e-39
-2.15573e-37
3.77811e-36
-7.54073e-34
6.63018e-34
1.92668e-30
-4.81726e-29
-1.87647e-27
1.47638e-26
1.34983e-24
2.26846e-23
2.20641e-22
1.29202e-21
5.4975e-21
1.81234e-20
4.93554e-20
1.21169e-19
2.71956e-19
5.46816e-19
9.90782e-19
1.55187e-18
2.14422e-18
2.56681e-18
2.70084e-18
2.53297e-18
2.2569e-18
2.05503e-18
1.90927e-18
1.70818e-18
1.4171e-18
1.02635e-18
5.61614e-19
0
2.57733e-22
8.90314e-36
-2.06357e-35
-3.9853e-35
-7.87617e-35
-1.48486e-34
-3.62229e-34
-5.78301e-34
-1.38111e-33
-1.20935e-33
-1.64596e-33
-6.14482e-34
6.69626e-33
3.93373e-33
5.93951e-33
5.08713e-32
1.26633e-31
4.44213e-31
9.93348e-31
2.05276e-30
4.90926e-30
9.80957e-30
1.93811e-29
2.89165e-29
5.40456e-29
8.17133e-29
7.58457e-29
2.2194e-28
1.94598e-28
6.54473e-28
1.01426e-28
1.61739e-28
-2.04663e-27
-2.49614e-27
-3.4699e-27
-8.4625e-27
-2.97364e-26
-6.09408e-26
-3.22127e-26
-1.17771e-25
-1.59382e-25
-2.82764e-25
-2.43378e-25
-1.36834e-24
-5.81604e-25
-1.9106e-24
-2.81636e-24
-4.72688e-24
-7.20836e-24
-4.16039e-24
6.98253e-24
2.20615e-23
2.16448e-23
7.1315e-23
5.32204e-23
5.47173e-23
6.26834e-23
2.00462e-22
2.67526e-22
3.74534e-22
2.41005e-22
1.13169e-22
-1.58695e-22
-8.58102e-23
-5.84053e-23
-8.23191e-23
-1.54614e-23
-9.5537e-24
-4.7545e-23
-4.53527e-23
-3.80184e-24
1.58224e-23
5.65714e-24
1.78431e-24
-7.96487e-26
-1.61815e-25
1.23751e-26
1.1798e-26
1.50401e-26
1.44554e-26
1.10149e-26
0
3.42435e-26
3.51507e-27
4.05372e-29
5.08849e-29
-7.62771e-32
-1.55207e-32
1.95582e-36
7.67178e-38
0
0
0
0
0
0
0
1.05962e-19
1.67698e-20
1.35155e-21
5.41058e-21
4.60977e-20
2.0451e-19
-7.56646e-06
4.75534e-05
0.000122719
4.65796e-06
4.26354e-06
4.23521e-06
4.30552e-06
0
0
0
0
0
0
0
0
0
0
0
0
0
0
0
0
0
0
0
0
0
0
0
0
0
0
0
0
0
0
0
0
0
0
0
0
0
0
0
0
0
0
0
0
0
0
0
0
0
0
0
0
0
0
0
0
0
0
0
0
0
0
0
0
0
0
0
0
0
0
0
0
0
0
0
0
0
0
0
0
0
0
0
0
0
0
0
0
0
0
0
0
0
0
0
0
0
0
0
0
0
0
0
0
0
0
0
0
0
0
0
0
0
0
0
0
0
0
0
0
0
0
0
0
0
0
0
0
0
0
0
0
0
0
0
0
0
0
0
0
0
0
0
0
0
0
0
0
0
0
0
0
0
0
0
0
0
0
0
0
0
0
0
0
0
0
0
0
0
0
0
0
0
0
0
0
0
0
0
0
0
0
0
0
0
0
0
0
0
0
9.32476e-30
1.2147e-27
1.26786e-19
2.7149e-06
0
0
0
0
0
0
0
0
0
-4.19514e-25
-6.35569e-21
0
6.336e-36
0
0
-1.30865e-34
1.26776e-06
-8.45461e-31
-7.04465e-30
-5.50389e-27
7.08145e-27
-6.37141e-26
-3.00276e-25
5.06753e-25
7.00047e-25
0
0
-6.3441e-25
-6.83782e-25
-6.91785e-25
-5.86464e-25
-3.87192e-25
-2.04972e-24
1.03984e-23
1.81359e-23
4.12066e-23
-2.79948e-22
-1.70922e-22
-2.27997e-22
-9.74027e-22
1.77308e-22
7.02178e-22
5.75253e-22
-1.28537e-21
-3.67611e-21
-3.78411e-21
7.12913e-21
1.81973e-34
1.52057e-33
-5.80307e-21
-3.6367e-21
1.49014e-21
1.1736e-21
3.81437e-21
3.65541e-21
2.69021e-21
2.59891e-21
1.84006e-21
1.40842e-21
8.38655e-22
6.73918e-22
2.49564e-22
-2.25338e-23
-7.6764e-24
-4.42041e-23
-5.59319e-23
-5.02803e-23
-4.2816e-23
-2.80841e-23
-1.95888e-23
-1.08077e-23
-6.03875e-24
-2.90926e-24
-1.73596e-24
-5.72544e-25
1.60354e-25
1.6878e-25
1.51434e-25
1.2851e-25
8.23658e-26
5.39023e-26
3.14584e-26
1.71158e-26
7.83508e-27
4.32745e-27
2.4036e-27
9.81911e-28
3.80234e-28
1.01972e-28
5.8377e-29
2.28539e-29
-9.03709e-30
-5.73305e-30
-2.88888e-30
-3.91806e-30
-1.94829e-30
-1.51972e-30
-8.19775e-31
-3.81309e-31
-2.01186e-31
-9.88346e-32
-4.78551e-32
-2.39386e-32
-1.11188e-32
-4.99157e-33
-2.4639e-33
-1.12386e-33
-4.20045e-34
1.55889e-33
0
0
0
0
0
0
0
0
0
0
0
0
0
0
0
0
0
0
0
0
0
0
0
0
0
0
0
0
0
0
0
0
0
0
0
0
0
0
0
0
0
0
0
0
0
0
0
0
0
0
0
0
0
0
0
0
0
0
0
0
0
0
0
0
0
0
0
0
0
0
0
0
0
0
0
0
0
0
0
0
0
0
0
0
0
0
0
0
0
0
0
0
0
0
0
0
0
0
0
0
0
0
0
0
0
0
0
0
0
0
-1.84526e-120
-2.31697e-120
1.69754e-119
2.11496e-119
2.19147e-119
-3.39878e-119
1.02143e-115
1.30072e-115
-9.38571e-114
2.5452e-114
-4.50913e-111
-5.45516e-111
-2.96922e-111
-3.09808e-111
-2.51973e-111
-2.72588e-111
-2.43817e-109
-2.27405e-109
-7.19171e-107
-7.09352e-107
-6.41712e-107
8.56198e-108
-6.69548e-106
-6.7456e-106
-9.93687e-106
1.87099e-105
-1.22629e-105
1.74031e-105
-2.75681e-104
-2.923e-104
-2.84031e-104
1.63541e-104
2.63055e-103
4.50954e-103
1.5989e-103
2.79164e-103
2.25198e-101
6.76595e-103
7.88299e-99
2.80923e-99
3.05312e-98
2.67192e-99
1.14211e-97
9.71468e-98
2.21572e-97
-5.76001e-97
1.1133e-95
1.22133e-96
2.63963e-93
5.20496e-93
-3.0935e-91
1.33594e-90
-1.83454e-90
6.2978e-90
-6.72621e-89
-7.40767e-89
-1.06593e-88
1.90011e-88
-1.48177e-88
2.41217e-88
-1.24387e-87
-1.26122e-87
-9.14113e-88
-3.87691e-88
-6.83739e-88
-2.69487e-88
-2.74031e-87
-3.01996e-87
-1.84755e-87
-1.7541e-87
-1.2014e-87
-1.18302e-87
-2.90585e-87
-1.79873e-87
-4.29597e-87
-3.35143e-87
-8.25294e-87
2.14931e-86
-9.7986e-87
1.01523e-86
-1.03096e-85
-1.14454e-85
-7.01705e-86
-5.24423e-86
-4.87853e-86
-3.21818e-86
-1.24318e-85
-1.07191e-85
-1.65878e-85
2.7407e-85
-3.82233e-85
1.02611e-84
-5.57418e-84
-3.63201e-84
-7.82038e-84
1.20351e-83