/*--------------------------------*- C++ -*----------------------------------*\
  =========                 |
  \\      /  F ield         | OpenFOAM: The Open Source CFD Toolbox
   \\    /   O peration     | Website:  https://openfoam.org
    \\  /    A nd           | Version:  7
     \\/     M anipulation  |
\*---------------------------------------------------------------------------*/
FoamFile
{
    version     2.0;
    format      ascii;
    class       volScalarField;
    location    "1";
    object      T;
}
// * * * * * * * * * * * * * * * * * * * * * * * * * * * * * * * * * * * * * //

dimensions      [0 0 0 1 0 0 0];

internalField   nonuniform List<scalar> 
2500
(
0.5
0.0669146
-0.0353169
-0.0277115
-0.00789976
0.00112931
0.00220711
0.000963794
3.88563e-05
-0.000206219
-0.000130475
-2.60559e-05
1.76156e-05
1.74837e-05
6.08561e-06
-9.06071e-07
-2.20759e-06
-1.13469e-06
-1.06163e-07
2.47859e-07
1.87024e-07
4.9395e-08
-2.13888e-08
-2.77866e-08
-1.17496e-08
4.15032e-10
3.66278e-09
2.25286e-09
3.96246e-10
-4.00522e-10
-3.772e-10
-1.28465e-10
2.7243e-11
5.58107e-11
2.84818e-11
2.06144e-12
-7.1827e-12
-5.38195e-12
-1.41059e-12
6.97992e-13
9.20875e-13
4.43118e-13
5.48804e-14
-7.21051e-14
-5.51479e-14
-1.82289e-14
-5.58214e-15
-9.20138e-15
-1.3575e-14
-7.67304e-15
0.933085
0.5
0.14482
-0.0139075
-0.0411718
-0.0230289
-0.00507433
0.00215701
0.00250723
0.00101071
-9.38734e-08
-0.000255324
-0.000158213
-3.18213e-05
2.20241e-05
2.24005e-05
8.17946e-06
-9.48178e-07
-2.86443e-06
-1.56602e-06
-2.00131e-07
3.13491e-07
2.58847e-07
7.77035e-08
-2.39625e-08
-3.79444e-08
-1.77304e-08
-5.20292e-10
4.83208e-09
3.30976e-09
7.47259e-10
-4.84936e-10
-5.38825e-10
-2.10313e-10
2.17418e-11
7.69968e-11
4.42792e-11
6.09237e-12
-9.44953e-12
-8.32627e-12
-2.88733e-12
4.60421e-13
1.14068e-12
6.6287e-13
1.82854e-13
1.20321e-14
2.07906e-14
4.56977e-14
3.33627e-14
-1.32474e-14
1.03532
0.85518
0.5
0.182448
0.00830364
-0.0419281
-0.032441
-0.0120093
3.84408e-05
0.00307766
0.00201936
0.000522644
-0.000189734
-0.000261936
-0.000118925
-6.07707e-06
2.86043e-05
2.02421e-05
5.19525e-06
-2.29056e-06
-2.95623e-06
-1.27806e-06
8.46554e-09
3.71768e-07
2.40892e-07
5.03709e-08
-3.68802e-08
-3.89005e-08
-1.47958e-08
1.67178e-09
5.45496e-09
3.10444e-09
4.35384e-10
-6.33139e-10
-5.47888e-10
-1.73391e-10
4.95171e-11
8.54525e-11
4.23683e-11
2.63734e-12
-1.11773e-11
-8.65921e-12
-2.9049e-12
2.39517e-13
7.63483e-13
3.44902e-13
4.53948e-14
3.76795e-14
1.37238e-13
1.38502e-13
1.02771
1.01391
0.817552
0.5
0.206389
0.0268058
-0.0388677
-0.0384381
-0.0184166
-0.00302402
0.00284105
0.00282245
0.00118552
4.2633e-05
-0.000296282
-0.000211922
-6.02234e-05
1.88442e-05
2.95095e-05
1.43558e-05
1.17969e-06
-3.31264e-06
-2.541e-06
-7.3481e-07
2.46588e-07
3.7721e-07
1.7883e-07
8.573e-09
-4.67553e-08
-3.3615e-08
-8.56673e-09
4.24339e-09
5.36486e-09
2.31015e-09
-6.07042e-11
-7.31234e-10
-4.69632e-10
-9.33359e-11
8.03104e-11
8.36592e-11
3.35035e-11
-1.61899e-12
-1.07481e-11
-6.93546e-12
-2.04086e-12
-1.56204e-14
4.9292e-15
-3.35369e-13
-3.46714e-13
4.96534e-14
1.0079
1.04117
0.991696
0.793611
0.5
0.223365
0.042154
-0.0343031
-0.0421139
-0.0239644
-0.00647534
0.00197761
0.00332499
0.00186777
0.000400612
-0.000245072
-0.000285991
-0.000129611
-8.12739e-06
3.15022e-05
2.39228e-05
7.25577e-06
-1.97863e-06
-3.44893e-06
-1.76137e-06
-1.8454e-07
3.91239e-07
3.18273e-07
9.93707e-08
-2.70435e-08
-4.76354e-08
-2.40376e-08
-2.00323e-09
5.8185e-09
4.50994e-09
1.28754e-09
-4.91459e-10
-7.21925e-10
-3.40817e-10
-1.26358e-11
9.56552e-11
7.10851e-11
2.23554e-11
-3.50692e-12
-7.29401e-12
-3.2558e-12
-3.39492e-13
-4.85929e-14
-8.29021e-13
-9.70618e-13
0.998871
1.02303
1.04193
0.973194
0.776635
0.5
0.236308
0.0551561
-0.0291433
-0.0442026
-0.0286476
-0.0100134
0.000663016
0.00351519
0.00249279
0.000838178
-0.000110139
-0.000325109
-0.00020245
-4.98925e-05
2.37007e-05
3.12705e-05
1.49634e-05
1.26021e-06
-3.52123e-06
-2.80623e-06
-8.96015e-07
2.13495e-07
4.11963e-07
2.18731e-07
2.69772e-08
-4.67845e-08
-3.99518e-08
-1.32051e-08
2.99708e-09
6.00717e-09
3.17995e-09
3.44379e-10
-7.35184e-10
-6.1414e-10
-2.0419e-10
4.11366e-11
8.79745e-11
4.92736e-11
1.1042e-11
-2.81165e-12
-1.68296e-12
1.60609e-12
2.11378e-12
-3.59449e-13
0.997793
1.00507
1.03244
1.03887
0.957846
0.763692
0.5
0.246668
0.0663827
-0.0238073
-0.0451887
-0.0325522
-0.0134733
-0.000959178
0.00341734
0.00301639
0.00131432
9.733e-05
-0.000320961
-0.000268331
-0.000102053
5.40097e-06
3.42592e-05
2.29965e-05
6.2179e-06
-2.43292e-06
-3.56994e-06
-1.78399e-06
-1.83404e-07
4.05355e-07
3.37001e-07
1.12388e-07
-2.33472e-08
-4.99215e-08
-2.73981e-08
-3.80048e-09
5.68092e-09
5.07251e-09
1.77412e-09
-3.19919e-10
-7.67783e-10
-4.46139e-10
-9.09772e-11
5.82876e-11
5.91916e-11
2.12787e-11
-7.13698e-14
-1.253e-12
4.44339e-12
5.43355e-12
0.999036
0.997843
1.01201
1.03844
1.0343
0.944844
0.753332
0.5
0.255249
0.0762288
-0.0184971
-0.0453946
-0.0357829
-0.0167686
-0.00277966
0.00306919
0.00341666
0.00179625
0.000362307
-0.000271062
-0.000319196
-0.000159502
-2.26983e-05
3.14482e-05
3.00039e-05
1.24139e-05
-5.01573e-08
-3.78026e-06
-2.69448e-06
-7.81471e-07
2.58291e-07
4.18752e-07
2.17143e-07
2.59189e-08
-4.76e-08
-4.1143e-08
-1.42499e-08
2.60611e-09
6.19264e-09
3.5582e-09
6.23512e-10
-6.29881e-10
-6.25774e-10
-2.58052e-10
-1.32508e-11
4.50453e-11
1.83745e-11
-8.19878e-12
-1.12728e-11
3.25138e-12
0.999961
0.997493
0.999962
1.01842
1.04211
1.02914
0.933617
0.744751
0.5
0.262537
0.0849758
-0.0133115
-0.0450396
-0.0384394
-0.0198576
-0.00471768
0.00251112
0.00368607
0.00225945
0.000669094
-0.000176905
-0.000349474
-0.000217239
-5.89605e-05
2.2113e-05
3.47796e-05
1.91931e-05
3.57793e-06
-3.23181e-06
-3.45354e-06
-1.52335e-06
-4.80356e-08
4.29817e-07
3.22469e-07
9.89572e-08
-2.80872e-08
-5.01973e-08
-2.69748e-08
-3.71055e-09
5.66076e-09
5.1799e-09
1.99185e-09
-1.03096e-10
-6.20573e-10
-3.76973e-10
-8.05037e-11
3.2601e-11
1.70906e-11
-2.42907e-11
-2.71935e-11
1.00021
0.998989
0.996922
1.00302
1.02396
1.0442
1.02381
0.923771
0.737463
0.5
0.268847
0.0928295
-0.00829713
-0.0442768
-0.0406094
-0.0227243
-0.00671456
0.00178129
0.00382595
0.00268654
0.001003
-4.24486e-05
-0.000355818
-0.000270828
-0.000101219
6.15712e-06
3.63676e-05
2.58328e-05
8.25192e-06
-1.80509e-06
-3.89324e-06
-2.32334e-06
-5.08992e-07
3.42948e-07
4.06162e-07
1.88744e-07
1.11944e-08
-5.01585e-08
-3.95972e-08
-1.30687e-08
2.72704e-09
5.91745e-09
3.41511e-09
7.17878e-10
-4.07741e-10
-4.00498e-10
-9.775e-11
6.61587e-11
5.83941e-11
-2.73896e-11
1.00013
1
0.997981
0.997159
1.00648
1.02865
1.04519
1.0185
0.915024
0.731153
0.5
0.274394
0.0999444
-0.00347339
-0.0432147
-0.0423674
-0.025367
-0.00872811
0.000913719
0.00384278
0.00306586
0.00135109
0.000126998
-0.000336704
-0.000316604
-0.000147094
-1.60181e-05
3.41025e-05
3.16251e-05
1.36644e-05
5.30374e-07
-3.87084e-06
-3.08008e-06
-1.0983e-06
1.4135e-07
4.45789e-07
2.84265e-07
7.00559e-08
-3.7039e-08
-4.88357e-08
-2.42649e-08
-2.81459e-09
5.14498e-09
4.38666e-09
1.54525e-09
-1.33903e-10
-4.0715e-10
-1.03691e-10
1.56673e-10
1.24956e-10
1.00003
1.00026
0.999477
0.997178
0.998022
1.01001
1.03255
1.04539
1.01331
0.90717
0.725606
0.5
0.279329
0.106439
0.00115474
-0.041932
-0.0437761
-0.0277924
-0.0107283
-6.2262e-05
0.00374582
0.00339021
0.00170247
0.000325544
-0.000292008
-0.000351728
-0.000194215
-4.3651e-05
2.76072e-05
3.59344e-05
1.94425e-05
3.72363e-06
-3.28083e-06
-3.6887e-06
-1.77239e-06
-1.80033e-07
4.21021e-07
3.71435e-07
1.4508e-07
-8.09756e-09
-5.0957e-08
-3.50119e-08
-1.0224e-08
2.79762e-09
4.63472e-09
2.12861e-09
-1.05744e-11
-5.92271e-10
-2.53412e-10
2.1615e-10
0.999982
1.00016
1.00019
0.998814
0.996675
0.999337
1.01347
1.03578
1.04504
1.0083
0.900056
0.720671
0.5
0.283765
0.112406
0.00559006
-0.0404869
-0.0448875
-0.0300111
-0.0126941
-0.0011218
0.00354557
0.00365566
0.00204819
0.000547226
-0.000222631
-0.000374148
-0.000240368
-7.57441e-05
1.67653e-05
3.8231e-05
2.51858e-05
7.65615e-06
-2.06024e-06
-4.0505e-06
-2.47563e-06
-6.14702e-07
3.15212e-07
4.33821e-07
2.28934e-07
3.67859e-08
-4.2994e-08
-4.25953e-08
-1.79245e-08
-3.93598e-10
4.49546e-09
2.62648e-09
-1.36913e-11
-1.11343e-09
-4.76712e-10
0.999983
1.00003
1.00026
0.999957
0.998132
0.996485
1.00096
1.01677
1.03844
1.04428
1.00347
0.893561
0.716235
0.5
0.287787
0.11792
0.00983944
-0.0389223
-0.0457452
-0.0320359
-0.0146108
-0.00224409
0.00325288
0.00386074
0.00238115
0.000786327
-0.00013018
-0.000382519
-0.00028358
-0.000111168
1.68147e-06
3.81082e-05
3.0497e-05
1.2159e-05
-1.88078e-07
-4.07901e-06
-3.1443e-06
-1.1445e-06
1.17486e-07
4.54182e-07
3.10307e-07
9.37799e-08
-2.45106e-08
-4.54119e-08
-2.45264e-08
-3.40133e-09
4.81426e-09
3.78571e-09
3.02346e-10
-1.54306e-09
0.999994
0.999978
1.00012
1.0003
0.999599
0.997507
0.996583
1.00278
1.01986
1.04061
1.04321
0.998845
0.887594
0.712213
0.5
0.291459
0.123039
0.0139117
-0.0372711
-0.0463857
-0.0338802
-0.0164687
-0.00341188
0.00287833
0.00400571
0.00269582
0.00103755
-1.67195e-05
-0.000376094
-0.000322165
-0.000148744
-1.73631e-05
3.52855e-05
3.50051e-05
1.70297e-05
2.31875e-06
-3.70275e-06
-3.7088e-06
-1.73813e-06
-1.73293e-07
4.18431e-07
3.76247e-07
1.55531e-07
1.4754e-09
-4.45034e-08
-3.03981e-08
-6.18386e-09
6.09532e-09
6.59016e-09
7.45569e-10
1
0.999978
1.00001
1.00021
1.00025
0.999162
0.996984
0.996931
1.00472
1.02272
1.04237
1.04193
0.99441
0.88208
0.708541
0.5
0.294834
0.127814
0.0178165
-0.035558
-0.0468395
-0.0355575
-0.0182615
-0.00461091
0.00243196
0.00409206
0.00298801
0.00129613
0.000115424
-0.000354624
-0.000354731
-0.000187305
-3.99554e-05
2.96004e-05
3.83779e-05
2.20446e-05
5.40816e-06
-2.86884e-06
-4.0969e-06
-2.35038e-06
-5.43909e-07
3.21833e-07
4.17721e-07
2.14926e-07
3.02931e-08
-4.33277e-08
-3.84221e-08
-1.09955e-08
7.78245e-09
8.64937e-09
1
0.999992
0.999971
1.00006
1.00029
1.00011
0.998686
0.996583
0.997489
1.00671
1.02537
1.04378
1.04049
0.990161
0.876961
0.705166
0.5
0.297951
0.132283
0.0215636
-0.0338022
-0.0471324
-0.0370806
-0.0199854
-0.00582946
0.00192307
0.00412207
0.00325471
0.00155785
0.000263802
-0.000318253
-0.000380176
-0.000225743
-6.55927e-05
2.0993e-05
4.0325e-05
2.69628e-05
8.98948e-06
-1.55291e-06
-4.24409e-06
-2.92795e-06
-9.66819e-07
1.73303e-07
4.35876e-07
2.71306e-07
6.05671e-08
-4.45059e-08
-5.25961e-08
-2.17927e-08
8.52681e-09
1
1
0.99998
0.999981
1.00013
1.00033
0.999903
0.998204
0.996314
0.998219
1.00873
1.02779
1.04489
1.03892
0.986088
0.872186
0.702049
0.5
0.300845
0.136483
0.0251626
-0.0320184
-0.0472861
-0.0384617
-0.0216386
-0.00705794
0.0013602
0.00409858
0.00349379
0.00181902
0.000425953
-0.000267437
-0.000397668
-0.000263031
-9.3713e-05
9.49323e-06
4.05996e-05
3.1529e-05
1.29269e-05
2.24954e-07
-4.1132e-06
-3.42658e-06
-1.41117e-06
-8.93062e-09
4.43008e-07
3.34664e-07
9.96652e-08
-4.44523e-08
-7.5864e-08
-2.79116e-08
1
1
0.999995
0.99997
1.00001
1.0002
1.00032
0.999638
0.997741
0.996174
0.999086
1.01073
1.03001
1.04575
1.03727
0.982184
0.867717
0.699155
0.5
0.303542
0.14044
0.0286225
-0.0302183
-0.0473191
-0.0397121
-0.0232206
-0.00828853
0.000751047
0.00402473
0.00370393
0.00207651
0.000599475
-0.000202853
-0.000406604
-0.000298229
-0.000123704
-4.77391e-06
3.90172e-05
3.5492e-05
1.7046e-05
2.39162e-06
-3.71419e-06
-3.835e-06
-1.86486e-06
-2.13835e-07
4.52792e-07
4.21865e-07
1.65501e-07
-3.45591e-08
-8.58986e-08
1
1
1
0.999986
0.999968
1.00005
1.00027
1.00027
0.999331
0.997313
0.996157
1.00006
1.01269
1.03204
1.04639
1.03556
0.978436
0.863517
0.696458
0.5
0.306067
0.144179
0.0319521
-0.0284107
-0.0472471
-0.0408424
-0.0247318
-0.00951485
0.000102557
0.00390382
0.00388437
0.00232765
0.00078208
-0.000125335
-0.000406574
-0.000330467
-0.00015489
-2.15589e-05
3.55026e-05
3.86562e-05
2.11748e-05
4.84227e-06
-3.10269e-06
-4.18838e-06
-2.35578e-06
-4.60204e-07
4.60629e-07
5.43648e-07
2.78611e-07
-2.8994e-08
1
1
1
0.999999
0.999976
0.999976
1.0001
1.00032
1.00018
0.998997
0.996934
0.996254
1.00112
1.01461
1.03388
1.04684
1.0338
0.974837
0.85956
0.693933
0.5
0.308436
0.147722
0.0351593
-0.0266028
-0.0470838
-0.0418621
-0.0261733
-0.0107318
-0.000579056
0.0037392
0.00403489
0.0025702
0.000971599
-3.58455e-05
-0.000397351
-0.000358959
-0.00018654
-4.04656e-05
3.01451e-05
4.09574e-05
2.52215e-05
7.50483e-06
-2.33767e-06
-4.54917e-06
-2.95199e-06
-8.09315e-07
4.22792e-07
7.05137e-07
3.13081e-07
1
1
1
1
0.999993
0.999969
0.999995
1.00016
1.00035
1.00004
0.998649
0.99661
0.996454
1.00224
1.01647
1.03556
1.04713
1.03202
0.971377
0.855821
0.691564
0.5
0.310668
0.151087
0.0382517
-0.0248
-0.0468406
-0.0427801
-0.0275469
-0.0119351
-0.00128826
0.00353419
0.00415557
0.00280226
0.00116594
6.44796e-05
-0.000378965
-0.000383101
-0.00021796
-6.1004e-05
2.31988e-05
4.25114e-05
2.92538e-05
1.04282e-05
-1.40179e-06
-4.94747e-06
-3.72446e-06
-1.35799e-06
2.92628e-07
7.31621e-07
1
1
1
1
1
0.999985
0.999966
1.00002
1.00022
1.00036
0.999873
0.998298
0.996344
0.996747
1.00341
1.01826
1.03708
1.04729
1.03022
0.968048
0.852278
0.689332
0.5
0.312776
0.154289
0.0412361
-0.0230068
-0.0465277
-0.0436044
-0.0288544
-0.0131216
-0.00202012
0.00329201
0.00424681
0.00302221
0.00136303
0.00017424
-0.000351849
-0.000402664
-0.000248699
-8.27757e-05
1.49562e-05
4.35592e-05
3.35084e-05
1.38378e-05
-1.23743e-07
-5.29971e-06
-4.68591e-06
-2.19041e-06
2.43562e-07
1
1
1
1
1
0.999999
0.999977
0.999969
1.00006
1.00027
1.00034
0.999674
0.997952
0.996139
0.997122
1.00461
1.01999
1.03846
1.04732
1.02841
0.964841
0.848913
0.687224
0.5
0.314771
0.157342
0.0441189
-0.0212264
-0.0461537
-0.0443425
-0.0300982
-0.0142887
-0.00277025
0.00301583
0.00430928
0.00322873
0.00156086
0.000291787
-0.000316924
-0.000417992
-0.000278829
-0.000105773
5.47805e-06
4.4263e-05
3.82689e-05
1.80908e-05
1.83662e-06
-5.3402e-06
-5.86531e-06
-2.27298e-06
1
1
1
1
1
1
0.999994
0.99997
0.999978
1.0001
1.00032
1.00029
0.999453
0.997619
0.995994
0.997568
1.00583
1.02164
1.03971
1.04725
1.0266
0.961748
0.845711
0.685229
0.5
0.316664
0.160259
0.0469061
-0.0194616
-0.0457262
-0.0450012
-0.0312804
-0.0154341
-0.00353456
0.002709
0.00434423
0.0034212
0.00175789
0.000415551
-0.0002754
-0.000429975
-0.000309083
-0.000130638
-5.72179e-06
4.43987e-05
4.36143e-05
2.34957e-05
4.94936e-06
-4.95172e-06
-5.74783e-06
1
1
1
1
1
1
1
0.999988
0.999965
0.999994
1.00015
1.00035
1.00022
0.999214
0.997304
0.995908
0.998077
1.00706
1.02322
1.04084
1.04708
1.0248
0.958764
0.842658
0.683336
0.5
0.318465
0.16305
0.0496032
-0.0177143
-0.0452518
-0.0455866
-0.0324035
-0.0165561
-0.00430905
0.00237535
0.00435395
0.00360028
0.00195377
0.000544813
-0.000228106
-0.000439573
-0.000340622
-0.000158656
-1.9839e-05
4.30981e-05
4.91212e-05
3.0114e-05
9.4482e-06
-4.56344e-06
1
1
1
1
1
1
1
1
0.999981
0.999964
1.00002
1.00019
1.00037
1.00013
0.998962
0.997012
0.995878
0.99864
1.00829
1.02473
1.04186
1.04684
1.02301
0.955881
0.839741
0.681535
0.5
0.32018
0.165725
0.0522153
-0.0159862
-0.0447364
-0.0461047
-0.0334701
-0.0176535
-0.00509003
0.0020191
0.00434194
0.00376841
0.00215018
0.000680719
-0.00017443
-0.000446872
-0.000374304
-0.0001913
-3.85891e-05
3.88232e-05
5.36501e-05
3.81884e-05
9.25584e-06
1
1
1
1
1
1
1
1
0.999996
0.999974
0.999966
1.00004
1.00024
1.00038
1.00002
0.998704
0.996745
0.995901
0.999249
1.00951
1.02617
1.04278
1.04653
1.02123
0.953094
0.83695
0.679819
0.5
0.321818
0.168292
0.0547475
-0.0142781
-0.0441853
-0.0465613
-0.0344838
-0.0187265
-0.00587515
0.00164386
0.00431214
0.00392957
0.00235104
0.00082697
-0.000111315
-0.000449955
-0.000409622
-0.000229366
-6.35672e-05
2.93995e-05
5.74834e-05
3.56352e-05
1
1
1
1
1
1
1
1
1
0.999992
0.999968
0.999972
1.00008
1.00028
1.00038
0.999885
0.998442
0.996506
0.995975
0.999897
1.01073
1.02755
1.0436
1.04615
1.01946
0.950397
0.834275
0.678182
0.5
0.323384
0.17076
0.0572044
-0.012591
-0.0436037
-0.0469634
-0.0354506
-0.0197789
-0.00666581
0.00125017
0.00426671
0.00408746
0.00256144
0.000989458
-3.29897e-05
-0.00044417
-0.000443755
-0.000271897
-9.58991e-05
1.52643e-05
5.23532e-05
1
1
1
1
1
1
1
1
1
1
0.999986
0.999964
0.999983
1.00011
1.00032
1.00035
0.999736
0.998181
0.996296
0.996096
1.00058
1.01194
1.02885
1.04434
1.04573
1.01771
0.947785
0.831708
0.676616
0.499999
0.324884
0.173137
0.0595907
-0.0109254
-0.0429974
-0.0473199
-0.0363803
-0.02082
-0.00746996
0.000832078
0.00420246
0.00424221
0.00278489
0.00117438
6.80064e-05
-0.000422423
-0.000471174
-0.000315801
-0.000135588
1.36286e-05
1
1
1
1
1
1
1
1
1
1
0.999999
0.999981
0.999962
0.999998
1.00015
1.00035
1.00032
0.999574
0.997923
0.996116
0.996261
1.00129
1.01312
1.0301
1.045
1.04525
1.01599
0.945254
0.82924
0.675115
0.499998
0.326323
0.175429
0.0619123
-0.00927985
-0.0423703
-0.0476397
-0.0372858
-0.021865
-0.00830384
0.000374382
0.00410727
0.00438655
0.00301969
0.00138506
0.000198434
-0.000376749
-0.000483511
-0.000363825
-0.000119521
1
1
1
1
1
1
1
1
1
1
1
0.999996
0.999975
0.999962
1.00002
1.00019
1.00038
1.00027
0.999401
0.997672
0.995965
0.996466
1.00202
1.01429
1.03128
1.04559
1.04474
1.01428
0.942798
0.826864
0.673673
0.499995
0.327705
0.177645
0.0641796
-0.00764619
-0.0417193
-0.0479264
-0.038178
-0.022932
-0.00919027
-0.000147506
0.00395848
0.00450296
0.00325547
0.00161853
0.00036086
-0.000298043
-0.000489406
-0.000317297
1
1
1
1
1
1
1
1
1
1
1
1
0.999992
0.99997
0.999965
1.00004
1.00023
1.0004
1.0002
0.999218
0.99743
0.995844
0.996708
1.00277
1.01543
1.0324
1.0461
1.04419
1.0126
0.940415
0.824571
0.672282
0.499986
0.329038
0.179802
0.0664144
-0.00600085
-0.0410242
-0.0481683
-0.0390569
-0.0240331
-0.0101522
-0.000763212
0.003725
0.00456392
0.00347197
0.00186251
0.000555094
-0.000200239
-0.000425773
1
1
1
1
1
1
1
1
1
1
1
1
1
0.999988
0.999965
0.99997
1.00007
1.00026
1.00041
1.00013
0.999028
0.997198
0.995753
0.996984
1.00353
1.01656
1.03347
1.04656
1.04361
1.01093
0.938097
0.822352
0.670932
0.49997
0.330331
0.181925
0.068657
-0.00429509
-0.0402365
-0.0483255
-0.039898
-0.0251628
-0.0112019
-0.00149862
0.00337373
0.004536
0.00364019
0.00209806
0.000773129
-0.000186154
1
1
1
1
1
1
1
1
1
1
1
1
1
1
0.999983
0.999962
0.999979
1.00009
1.0003
1.00041
1.00004
0.998834
0.996977
0.995691
0.997292
1.00431
1.01765
1.03448
1.04696
1.043
1.0093
0.93584
0.820194
0.669611
0.499943
0.331597
0.184052
0.0709698
-0.00244912
-0.0392705
-0.0483196
-0.0406412
-0.0262854
-0.0123291
-0.00236475
0.00287918
0.00438748
0.00372329
0.00234739
0.000619423
1
1
1
1
1
1
1
1
1
1
1
1
1
1
0.999998
0.999978
0.99996
0.99999
1.00012
1.00033
1.0004
0.999935
0.998636
0.996771
0.995658
0.997628
1.00509
1.01872
1.03544
1.04731
1.04239
1.00769
0.93364
0.818078
0.668292
0.499884
0.332841
0.186221
0.073429
-0.000356564
-0.0380051
-0.0480327
-0.0411866
-0.0273284
-0.0134917
-0.00334809
0.00223527
0.00408071
0.00380023
0.00192044
1
1
1
1
1
1
1
1
1
1
1
1
1
1
1
0.999995
0.999973
0.999959
1
1.00016
1.00036
1.00038
0.999824
0.998438
0.996581
0.995653
0.997988
1.00587
1.01975
1.03635
1.04763
1.04178
1.00613
0.931482
0.815959
0.666906
0.499727
0.334025
0.188447
0.076103
0.00209708
-0.036299
-0.047318
-0.041401
-0.0281847
-0.0146152
-0.0044013
0.00143275
0.00375364
0.00313834
1
1
1
1
1
1
1
1
1
1
1
1
1
1
1
1
0.999991
0.999968
0.999961
1.00002
1.00019
1.00038
1.00035
0.999705
0.998242
0.996409
0.995673
0.99836
1.00664
1.02076
1.03723
1.04796
1.04122
1.00462
0.92931
0.813719
0.665296
0.499312
0.33503
0.190677
0.0790185
0.00500358
-0.0340179
-0.0460243
-0.041137
-0.0287269
-0.0155942
-0.00547892
0.000614472
0.0031828
1
1
1
1
1
1
1
1
1
1
1
1
1
1
1
1
1
0.999987
0.999964
0.999965
1.00004
1.00022
1.0004
1.00031
0.999582
0.998055
0.996254
0.995706
0.998728
1.00738
1.02174
1.03814
1.04836
1.04074
1.00311
0.926972
0.811102
0.663147
0.498328
0.335607
0.19276
0.0821237
0.00839633
-0.03107
-0.0440279
-0.0402624
-0.0288255
-0.0163229
-0.00655785
0.000799297
1
1
1
1
1
1
1
1
1
1
1
1
1
1
1
1
1
1
0.999983
0.999962
0.999971
1.00006
1.00025
1.00041
1.00027
0.999461
0.997878
0.996106
0.995731
0.999073
1.00812
1.02278
1.03917
1.04892
1.04032
1.00144
0.924128
0.80763
0.659923
0.496269
0.335346
0.194414
0.0852628
0.0122213
-0.0274371
-0.041265
-0.0386911
-0.0283389
-0.017066
-0.00476583
1
1
1
1
1
1
1
1
1
1
1
1
1
1
1
1
1
1
0.999997
0.999979
0.99996
0.999979
1.00008
1.00027
1.00042
1.00023
0.999347
0.9977
0.995938
0.995718
0.999398
1.00891
1.02398
1.04044
1.04966
1.03983
0.999202
0.920156
0.802544
0.654837
0.492427
0.333683
0.195233
0.0881728
0.016325
-0.0231924
-0.0377683
-0.0362939
-0.0279552
-0.0130219
1
1
1
1
1
1
1
1
1
1
1
1
1
1
1
1
1
1
1
0.999995
0.999976
0.99996
0.999986
1.0001
1.0003
1.00043
1.0002
0.999233
0.997495
0.995714
0.995658
0.999762
1.00989
1.02552
1.04206
1.05047
1.03883
0.99568
0.914093
0.794781
0.646876
0.48594
0.329947
0.194731
0.090509
0.0204699
-0.0185294
-0.0334711
-0.0341811
-0.0217721
1
1
1
1
1
1
1
1
1
1
1
1
1
1
1
1
1
1
1
1
0.999993
0.999973
0.999958
0.99999
1.00012
1.00033
1.00046
1.00017
0.999091
0.997218
0.99541
0.995598
1.00031
1.01127
1.02755
1.04395
1.05095
1.03653
0.989741
0.904636
0.783049
0.634903
0.475902
0.323462
0.192409
0.0919024
0.0243229
-0.0134755
-0.0296794
-0.0272374
1
1
1
1
1
1
1
1
1
1
1
1
1
1
1
1
1
1
1
1
1
0.999992
0.999969
0.999954
0.999994
1.00014
1.00038
1.0005
1.00013
0.998873
0.996834
0.995056
0.995678
1.00126
1.01325
1.03007
1.04576
1.05027
1.03169
0.97988
0.890247
0.765974
0.617823
0.461508
0.313657
0.187856
0.0919734
0.0277632
-0.0090487
-0.0248426
1
1
1
1
1
1
1
1
1
1
1
1
1
1
1
1
1
1
1
1
1
1
0.999989
0.999961
0.999946
1
1.00019
1.00045
1.00054
1.00001
0.998534
0.996356
0.994781
0.996136
1.00288
1.01591
1.03278
1.04666
1.04711
1.02263
0.964352
0.869352
0.742318
0.594777
0.442217
0.300196
0.180788
0.0905332
0.0307388
-0.010461
1
1
1
1
1
1
1
1
1
1
1
1
1
1
1
1
1
1
0.999999
1
1
1.00001
1
0.999982
0.999949
0.999942
1.00003
1.00026
1.00053
1.00052
0.999776
0.998071
0.995895
0.994823
0.997249
1.00528
1.019
1.03488
1.04528
1.03967
1.00744
0.941405
0.840598
0.711213
0.565327
0.417879
0.283065
0.171014
0.0892849
0.0183809
1
1
1
1
1
1
1
1
1
1
1
1
1
1
1
1
1
1
0.999999
0.999999
1
1
1.00001
0.999999
0.999971
0.999938
0.999952
1.00008
1.00034
1.00056
1.00039
0.999408
0.997581
0.995681
0.995471
0.999191
1.00828
1.02176
1.03499
1.03976
1.02591
0.98423
0.909617
0.80315
0.672366
0.529538
0.388769
0.26192
0.162407
0.0613609
1
1
1
1
1
1
1
1
1
1
1
1
1
1
1
1
1
1
1
0.999999
1
1
1.00001
1.00001
0.999991
0.99996
0.999939
0.999984
1.00015
1.00039
1.0005
1.00013
0.998983
0.997273
0.99601
0.996948
1.00185
1.0112
1.02281
1.03112
1.02778
1.00359
0.951274
0.868031
0.756923
0.626458
0.488827
0.355598
0.244787
0.117165
1
1
1
1
1
1
1
1
1
1
1
1
1
1
1
1
1
1
1
1
0.999999
1
1
1.00001
1
0.999983
0.999957
0.999954
1.00003
1.0002
1.00038
1.00035
0.99982
0.998686
0.997372
0.996985
0.999024
1.00452
1.01284
1.02066
1.02178
1.00813
0.971873
0.907886
0.815696
0.700112
0.570642
0.43729
0.321093
0.173202
1
1
1
1
1
1
1
1
1
1
1
1
1
1
1
1
1
1
1
1
1
1
1
1
1
0.999999
0.99999
0.999979
0.999984
1.00003
1.00011
1.00018
1.00012
0.999786
0.999228
0.998802
0.999196
1.0011
1.00455
1.00808
1.00819
0.999454
0.975542
0.930844
0.862313
0.770666
0.661127
0.539598
0.428313
0.266387
)
;

boundaryField
{
    upperWall
    {
        type            zeroGradient;
    }
    outlet
    {
        type            zeroGradient;
    }
    inlet
    {
        type            fixedValue;
        value           uniform 1;
    }
    lowerWall
    {
        type            fixedValue;
        value           uniform 0;
    }
    frontAndBack
    {
        type            empty;
    }
}


// ************************************************************************* //
