/*--------------------------------*- C++ -*----------------------------------*\
  =========                 |
  \\      /  F ield         | OpenFOAM: The Open Source CFD Toolbox
   \\    /   O peration     | Website:  https://openfoam.org
    \\  /    A nd           | Version:  7
     \\/     M anipulation  |
\*---------------------------------------------------------------------------*/
FoamFile
{
    version     2.0;
    format      ascii;
    class       volScalarField;
    location    "0.9";
    object      T;
}
// * * * * * * * * * * * * * * * * * * * * * * * * * * * * * * * * * * * * * //

dimensions      [0 0 0 1 0 0 0];

internalField   nonuniform List<scalar> 
10000
(
0.5
0.0669146
-0.0353169
-0.0277115
-0.00789976
0.00112931
0.00220711
0.000963794
3.88563e-05
-0.000206219
-0.000130475
-2.60559e-05
1.76156e-05
1.74837e-05
6.08561e-06
-9.06071e-07
-2.20759e-06
-1.13469e-06
-1.06163e-07
2.47859e-07
1.87024e-07
4.9395e-08
-2.13888e-08
-2.77866e-08
-1.17496e-08
4.15034e-10
3.66278e-09
2.25287e-09
3.96249e-10
-4.00522e-10
-3.77204e-10
-1.28468e-10
2.72483e-11
5.58372e-11
2.85372e-11
2.14233e-12
-7.093e-12
-5.30845e-12
-1.37604e-12
6.83546e-13
8.64618e-13
3.65827e-13
-1.85488e-14
-1.22706e-13
-7.57045e-14
-1.30558e-14
1.42833e-14
1.34365e-14
4.56344e-15
-1.08716e-15
-2.14538e-15
-1.11533e-15
-8.37509e-17
3.15138e-16
2.86371e-16
1.53248e-16
6.61084e-17
2.90158e-17
5.33366e-18
-2.2703e-17
-4.94737e-17
-6.31045e-17
-5.85439e-17
-3.98605e-17
-1.59209e-17
4.85882e-18
1.7605e-17
2.15011e-17
1.86307e-17
1.22727e-17
5.45826e-18
1.61808e-19
-2.86366e-18
-3.80913e-18
-3.35731e-18
-2.27156e-18
-1.13903e-18
-2.82284e-19
2.08624e-19
3.89317e-19
3.72824e-19
2.68046e-19
1.50729e-19
5.93257e-20
4.069e-21
-2.05171e-20
-2.53324e-20
-2.05385e-20
-1.30855e-20
-6.59085e-21
-2.26024e-21
2.76484e-23
8.92309e-22
9.73627e-22
7.36904e-22
4.47552e-22
2.1947e-22
7.70705e-23
6.64324e-24
-2.70968e-23
0.933085
0.5
0.14482
-0.0139075
-0.0411718
-0.0230289
-0.00507433
0.00215701
0.00250723
0.00101071
-9.38734e-08
-0.000255324
-0.000158213
-3.18213e-05
2.20241e-05
2.24005e-05
8.17946e-06
-9.48178e-07
-2.86443e-06
-1.56602e-06
-2.00131e-07
3.13491e-07
2.58847e-07
7.77035e-08
-2.39625e-08
-3.79444e-08
-1.77304e-08
-5.20299e-10
4.83208e-09
3.30976e-09
7.47241e-10
-4.84999e-10
-5.38962e-10
-2.10525e-10
2.14979e-11
7.6803e-11
4.4227e-11
6.23632e-12
-9.12446e-12
-7.90475e-12
-2.489e-12
7.31474e-13
1.23561e-12
5.98791e-13
2.37405e-14
-1.65621e-13
-1.17266e-13
-2.76295e-14
1.73449e-14
1.99982e-14
7.99894e-15
-8.97075e-16
-3.23996e-15
-2.11066e-15
-6.04354e-16
1.45313e-16
3.0017e-16
2.79363e-16
2.82913e-16
3.0166e-16
2.73158e-16
1.78296e-16
4.87244e-17
-6.73315e-17
-1.36151e-16
-1.49792e-16
-1.21064e-16
-7.19153e-17
-2.28823e-17
1.29256e-17
3.10891e-17
3.38838e-17
2.69716e-17
1.63611e-17
6.5036e-18
-3.34651e-19
-3.76125e-18
-4.51467e-18
-3.71875e-18
-2.37177e-18
-1.12027e-18
-2.50464e-19
2.08213e-19
3.56431e-19
3.26366e-19
2.26621e-19
1.24167e-19
4.8551e-20
4.75894e-21
-1.40392e-20
-1.76351e-20
-1.42311e-20
-9.04266e-21
-4.60763e-21
-1.69021e-21
-1.52221e-22
4.47863e-22
5.38443e-22
4.24007e-22
2.30202e-22
1.03532
0.85518
0.5
0.182448
0.00830364
-0.0419281
-0.032441
-0.0120093
3.84408e-05
0.00307766
0.00201936
0.000522644
-0.000189734
-0.000261936
-0.000118925
-6.07707e-06
2.86043e-05
2.02421e-05
5.19525e-06
-2.29056e-06
-2.95623e-06
-1.27806e-06
8.46554e-09
3.71768e-07
2.40892e-07
5.03709e-08
-3.68802e-08
-3.89006e-08
-1.47958e-08
1.67178e-09
5.45504e-09
3.1046e-09
4.35545e-10
-6.33136e-10
-5.48229e-10
-1.74177e-10
4.83609e-11
8.41877e-11
4.13499e-11
2.16017e-12
-1.1009e-11
-7.96971e-12
-1.97739e-12
1.09386e-12
1.3273e-12
5.52683e-13
-3.46094e-14
-1.91094e-13
-1.16821e-13
-1.94253e-14
2.3107e-14
2.17949e-14
7.75598e-15
-1.5188e-15
-3.74338e-15
-2.63156e-15
-1.29005e-15
-6.38333e-16
-3.79012e-16
-1.13262e-16
2.43697e-16
5.59668e-16
6.96712e-16
6.22031e-16
4.01476e-16
1.3985e-16
-7.44681e-17
-1.96509e-16
-2.24745e-16
-1.85835e-16
-1.15869e-16
-4.58334e-17
5.64763e-18
3.28438e-17
3.92545e-17
3.26329e-17
2.08439e-17
9.51988e-18
1.46383e-18
-2.80865e-18
-4.09536e-18
-3.61666e-18
-2.44596e-18
-1.27702e-18
-4.26493e-19
5.25677e-20
2.4068e-19
2.54054e-19
1.90982e-19
1.13937e-19
5.24964e-20
1.42314e-20
-4.3676e-21
-1.02191e-20
-9.59503e-21
-6.71601e-21
-3.80782e-21
-1.70058e-21
-4.99875e-22
2.08475e-22
1.02771
1.01391
0.817552
0.5
0.206389
0.0268058
-0.0388677
-0.0384381
-0.0184166
-0.00302402
0.00284105
0.00282245
0.00118552
4.2633e-05
-0.000296282
-0.000211922
-6.02234e-05
1.88442e-05
2.95095e-05
1.43558e-05
1.17969e-06
-3.31264e-06
-2.541e-06
-7.3481e-07
2.46588e-07
3.7721e-07
1.7883e-07
8.57306e-09
-4.67553e-08
-3.3615e-08
-8.56666e-09
4.24374e-09
5.36576e-09
2.31171e-09
-5.87231e-11
-7.29434e-10
-4.68781e-10
-9.40045e-11
7.80718e-11
8.04024e-11
3.01652e-11
-4.11811e-12
-1.18724e-11
-6.69114e-12
-8.75691e-13
1.44548e-12
1.23347e-12
3.85478e-13
-1.18207e-13
-1.97148e-13
-9.59316e-14
-3.32903e-15
2.84044e-14
2.16389e-14
7.23477e-15
-9.19937e-16
-2.78503e-15
-2.33503e-15
-2.00875e-15
-2.0851e-15
-2.00743e-15
-1.44413e-15
-5.29393e-16
3.75325e-16
9.68004e-16
1.14075e-15
9.64263e-16
6.00772e-16
2.1544e-16
-7.86979e-17
-2.36876e-16
-2.70363e-16
-2.21268e-16
-1.37675e-16
-5.69755e-17
5.98649e-19
3.03986e-17
3.76952e-17
3.15401e-17
2.03266e-17
9.66857e-18
2.15828e-18
-1.84288e-18
-3.14722e-18
-2.88314e-18
-1.99875e-18
-1.08743e-18
-4.14528e-19
-2.63938e-20
1.37543e-19
1.65349e-19
1.31132e-19
8.20243e-20
4.07992e-20
1.40735e-20
2.76292e-22
-4.85081e-21
-5.35331e-21
-4.07782e-21
-2.12012e-21
1.0079
1.04117
0.991696
0.793611
0.5
0.223365
0.042154
-0.0343031
-0.0421139
-0.0239644
-0.00647534
0.00197761
0.00332499
0.00186777
0.000400612
-0.000245072
-0.000285991
-0.000129611
-8.12739e-06
3.15022e-05
2.39228e-05
7.25577e-06
-1.97863e-06
-3.44893e-06
-1.76137e-06
-1.8454e-07
3.9124e-07
3.18273e-07
9.93709e-08
-2.70434e-08
-4.76358e-08
-2.40385e-08
-2.00424e-09
5.81838e-09
4.51192e-09
1.29237e-09
-4.84176e-10
-7.13816e-10
-3.342e-10
-9.51052e-12
9.45107e-11
6.64245e-11
1.60472e-11
-9.35073e-12
-1.11616e-11
-4.66482e-12
2.59648e-13
1.59623e-12
9.94054e-13
1.79722e-13
-1.85335e-13
-1.82096e-13
-6.72358e-14
1.07627e-14
2.99058e-14
2.02692e-14
8.39625e-15
2.79209e-15
1.25766e-15
1.89268e-16
-1.60968e-15
-3.42624e-15
-4.26705e-15
-3.80237e-15
-2.40283e-15
-7.38889e-16
6.1123e-16
1.35524e-15
1.4895e-15
1.19551e-15
7.13748e-16
2.47293e-16
-8.50343e-17
-2.50679e-16
-2.77715e-16
-2.20991e-16
-1.34346e-16
-5.52409e-17
-1.31233e-18
2.54142e-17
3.15463e-17
2.61129e-17
1.67093e-17
8.03383e-18
2.05494e-18
-1.09171e-18
-2.1414e-18
-2.00476e-18
-1.40634e-18
-7.81815e-19
-3.19316e-19
-4.99606e-20
6.82827e-20
9.47772e-20
7.86593e-20
5.09111e-20
2.65953e-20
1.03469e-20
1.78549e-21
-2.6946e-21
0.998871
1.02303
1.04193
0.973194
0.776635
0.5
0.236308
0.0551561
-0.0291433
-0.0442026
-0.0286476
-0.0100134
0.000663016
0.00351519
0.00249279
0.000838178
-0.000110139
-0.000325109
-0.00020245
-4.98925e-05
2.37007e-05
3.12705e-05
1.49634e-05
1.26022e-06
-3.52123e-06
-2.80623e-06
-8.96015e-07
2.13495e-07
4.11962e-07
2.18731e-07
2.6977e-08
-4.67862e-08
-3.99564e-08
-1.32132e-08
2.98683e-09
5.99819e-09
3.17653e-09
3.49637e-10
-7.21182e-10
-5.94782e-10
-1.85005e-10
5.48486e-11
9.32948e-11
4.65281e-11
3.12938e-12
-1.20505e-11
-9.11042e-12
-2.48622e-12
1.10338e-12
1.50856e-12
6.82243e-13
-4.37233e-15
-2.18615e-13
-1.5421e-13
-4.38751e-14
1.40517e-14
2.3545e-14
1.61816e-14
1.08706e-14
1.00192e-14
9.53671e-15
6.6624e-15
1.81711e-15
-2.96312e-15
-5.93493e-15
-6.52226e-15
-5.20336e-15
-2.9586e-15
-7.36859e-16
8.52946e-16
1.61105e-15
1.65429e-15
1.25848e-15
7.12828e-16
2.28336e-16
-9.20225e-17
-2.37182e-16
-2.5044e-16
-1.91876e-16
-1.1284e-16
-4.51065e-17
-1.24189e-18
1.93725e-17
2.357e-17
1.91474e-17
1.2087e-17
5.80811e-18
1.59289e-18
-5.86992e-19
-1.31756e-18
-1.25232e-18
-8.8431e-19
-4.98354e-19
-2.12892e-19
-4.58902e-20
2.93168e-20
4.89798e-20
4.24956e-20
2.86652e-20
1.25934e-20
0.997793
1.00507
1.03244
1.03887
0.957846
0.763692
0.5
0.246668
0.0663827
-0.0238073
-0.0451887
-0.0325522
-0.0134733
-0.000959178
0.00341734
0.00301639
0.00131432
9.733e-05
-0.000320961
-0.000268331
-0.000102053
5.40097e-06
3.42592e-05
2.29965e-05
6.2179e-06
-2.43292e-06
-3.56994e-06
-1.78399e-06
-1.83405e-07
4.05355e-07
3.37003e-07
1.12392e-07
-2.33436e-08
-4.9923e-08
-2.74106e-08
-3.82702e-09
5.6432e-09
5.03276e-09
1.74445e-09
-3.29807e-10
-7.55153e-10
-4.1639e-10
-5.49398e-11
8.92644e-11
7.7686e-11
2.57633e-11
-6.16306e-12
-1.20783e-11
-6.33935e-12
-6.09763e-13
1.53877e-12
1.24381e-12
3.78397e-13
-1.27827e-13
-2.14351e-13
-1.23165e-13
-3.57153e-14
-5.75427e-16
3.77874e-15
4.44331e-15
1.05363e-14
1.80799e-14
2.11196e-14
1.7686e-14
9.85662e-15
1.25961e-15
-5.17313e-15
-8.1754e-15
-8.01904e-15
-5.85779e-15
-3.02529e-15
-5.50369e-16
1.04005e-15
1.68238e-15
1.60841e-15
1.15374e-15
6.13845e-16
1.74387e-16
-9.38321e-17
-2.02171e-16
-2.01513e-16
-1.47962e-16
-8.38025e-17
-3.22236e-17
-5.28704e-19
1.35391e-17
1.59679e-17
1.26876e-17
7.88294e-18
3.76904e-18
1.07952e-18
-2.85936e-19
-7.42971e-19
-7.15304e-19
-5.07446e-19
-2.88879e-19
-1.27607e-19
-3.28699e-20
9.92172e-21
2.60067e-20
0.999036
0.997843
1.01201
1.03844
1.0343
0.944844
0.753332
0.5
0.255249
0.0762288
-0.0184971
-0.0453946
-0.0357829
-0.0167686
-0.00277966
0.00306919
0.00341666
0.00179625
0.000362307
-0.000271062
-0.000319196
-0.000159502
-2.26983e-05
3.14482e-05
3.00039e-05
1.24139e-05
-5.01571e-08
-3.78026e-06
-2.69448e-06
-7.81473e-07
2.58291e-07
4.1876e-07
2.17163e-07
2.5954e-08
-4.75585e-08
-4.11123e-08
-1.42496e-08
2.56399e-09
6.11199e-09
3.45909e-09
5.34283e-10
-6.84859e-10
-6.35995e-10
-2.2959e-10
3.6187e-11
9.51497e-11
5.4359e-11
8.18932e-12
-1.10579e-11
-1.01062e-11
-3.52793e-12
7.07002e-13
1.59758e-12
9.06963e-13
1.52821e-13
-1.65582e-13
-1.69569e-13
-9.03595e-14
-4.37034e-14
-3.51547e-14
-3.407e-14
-2.17998e-14
5.74712e-17
2.07925e-14
3.18726e-14
3.12914e-14
2.23142e-14
1.02195e-14
-4.35034e-16
-7.13279e-15
-9.4608e-15
-8.44459e-15
-5.6817e-15
-2.63488e-15
-2.47694e-16
1.12306e-15
1.56445e-15
1.38756e-15
9.3459e-16
4.63321e-16
1.11209e-16
-8.64688e-17
-1.56049e-16
-1.46391e-16
-1.02887e-16
-5.60475e-17
-2.06241e-17
5.78736e-20
8.71673e-18
9.91982e-18
7.70319e-18
4.7094e-18
2.23746e-18
6.61461e-19
-1.24877e-19
-3.87551e-19
-3.78048e-19
-2.69052e-19
-1.57009e-19
-5.17689e-20
0.999961
0.997493
0.999962
1.01842
1.04211
1.02914
0.933617
0.744751
0.5
0.262537
0.0849758
-0.0133115
-0.0450396
-0.0384394
-0.0198576
-0.00471768
0.00251112
0.00368607
0.00225945
0.000669094
-0.000176905
-0.000349474
-0.000217239
-5.89605e-05
2.2113e-05
3.47796e-05
1.91931e-05
3.57793e-06
-3.2318e-06
-3.45354e-06
-1.52336e-06
-4.80473e-08
4.29811e-07
3.2249e-07
9.90302e-08
-2.79562e-08
-5.00298e-08
-2.68177e-08
-3.61799e-09
5.65286e-09
5.07188e-09
1.82066e-09
-2.81013e-10
-7.53964e-10
-4.38922e-10
-7.38661e-11
8.34918e-11
8.06089e-11
3.01581e-11
-3.96229e-12
-1.20624e-11
-7.14097e-12
-1.21719e-12
1.3873e-12
1.38565e-12
5.97255e-13
5.19673e-14
-1.02074e-13
-7.40838e-14
-4.25791e-14
-5.478e-14
-8.16714e-14
-8.8809e-14
-6.68726e-14
-2.78156e-14
1.03902e-14
3.5118e-14
4.26665e-14
3.63875e-14
2.28592e-14
8.49138e-15
-2.44272e-15
-8.30453e-15
-9.56056e-15
-7.80358e-15
-4.81565e-15
-1.95708e-15
5.54388e-17
1.07431e-15
1.3034e-15
1.07192e-15
6.76655e-16
3.10563e-16
5.86707e-17
-7.11098e-17
-1.09689e-16
-9.69656e-17
-6.5291e-17
-3.42255e-17
-1.20273e-17
3.18268e-19
5.19514e-18
5.7013e-18
4.32984e-18
2.60683e-18
1.23095e-18
3.7369e-19
-4.78888e-20
-1.87205e-19
-1.86436e-19
1.00021
0.998989
0.996922
1.00302
1.02396
1.0442
1.02381
0.923771
0.737463
0.5
0.268847
0.0928295
-0.00829713
-0.0442768
-0.0406094
-0.0227243
-0.00671456
0.00178129
0.00382595
0.00268654
0.001003
-4.24486e-05
-0.000355818
-0.000270828
-0.000101219
6.15712e-06
3.63676e-05
2.58328e-05
8.25193e-06
-1.80508e-06
-3.89324e-06
-2.32337e-06
-5.09073e-07
3.42821e-07
4.06035e-07
1.88693e-07
1.12936e-08
-4.98814e-08
-3.9188e-08
-1.2636e-08
3.05689e-09
6.05568e-09
3.34644e-09
4.99756e-10
-6.78143e-10
-6.30921e-10
-2.33955e-10
3.05763e-11
9.35894e-11
5.59621e-11
1.01169e-11
-1.03152e-11
-1.04132e-11
-4.15515e-12
2.68541e-13
1.47078e-12
1.00683e-12
3.66084e-13
8.36083e-14
6.43962e-14
8.66837e-14
4.56847e-14
-4.22028e-14
-1.19694e-13
-1.48972e-13
-1.27376e-13
-7.53696e-14
-1.85814e-14
2.43186e-14
4.5681e-14
4.72405e-14
3.59852e-14
1.99806e-14
5.50018e-15
-4.15364e-15
-8.43229e-15
-8.55503e-15
-6.38488e-15
-3.58863e-15
-1.23087e-15
2.59836e-16
9.12154e-16
9.78467e-16
7.47903e-16
4.42434e-16
1.86923e-16
2.4348e-17
-5.23557e-17
-7.06697e-17
-5.90729e-17
-3.8188e-17
-1.92934e-17
-6.47429e-18
3.38169e-19
2.88068e-18
3.05376e-18
2.27179e-18
1.34695e-18
6.47011e-19
1.00744e-19
1.00013
1
0.997981
0.997159
1.00648
1.02865
1.04519
1.0185
0.915024
0.731153
0.5
0.274394
0.0999444
-0.00347339
-0.0432147
-0.0423674
-0.025367
-0.00872811
0.000913719
0.00384278
0.00306586
0.00135109
0.000126998
-0.000336704
-0.000316604
-0.000147094
-1.60181e-05
3.41025e-05
3.16251e-05
1.36644e-05
5.30393e-07
-3.87081e-06
-3.0801e-06
-1.09846e-06
1.40984e-07
4.45232e-07
2.83651e-07
6.95991e-08
-3.71387e-08
-4.8494e-08
-2.35641e-08
-1.97186e-09
5.87408e-09
4.81587e-09
1.6213e-09
-3.35463e-10
-7.40126e-10
-4.20858e-10
-6.8533e-11
8.2053e-11
7.91801e-11
3.03583e-11
-3.24062e-12
-1.18257e-11
-7.51085e-12
-1.84971e-12
8.20576e-13
1.04175e-12
5.0823e-13
1.91053e-13
2.03945e-13
3.09472e-13
3.17835e-13
1.99448e-13
2.55354e-14
-1.20587e-13
-1.93073e-13
-1.89855e-13
-1.36329e-13
-6.53935e-14
-3.43311e-15
3.56381e-14
4.98967e-14
4.53483e-14
3.09944e-14
1.49241e-14
2.27105e-15
-5.06056e-15
-7.54542e-15
-6.81965e-15
-4.65394e-15
-2.36363e-15
-6.41782e-16
3.34318e-16
6.91857e-16
6.66421e-16
4.75313e-16
2.63757e-16
1.01959e-16
6.35879e-18
-3.48216e-17
-4.20152e-17
-3.33575e-17
-2.07597e-17
-1.0131e-17
-3.25094e-18
2.5467e-19
1.49317e-18
1.54152e-18
1.02793e-18
1.00003
1.00026
0.999477
0.997178
0.998022
1.01001
1.03255
1.04539
1.01331
0.90717
0.725606
0.5
0.279329
0.106439
0.00115474
-0.041932
-0.0437761
-0.0277924
-0.0107283
-6.2262e-05
0.00374582
0.00339021
0.00170247
0.000325544
-0.000292008
-0.000351728
-0.000194215
-4.36511e-05
2.76072e-05
3.59344e-05
1.94425e-05
3.72374e-06
-3.28056e-06
-3.68834e-06
-1.77217e-06
-1.80246e-07
4.20168e-07
3.69979e-07
1.43349e-07
-9.59764e-09
-5.17625e-08
-3.49115e-08
-9.34237e-09
4.07852e-09
5.86108e-09
2.96269e-09
3.09571e-10
-6.99282e-10
-5.97043e-10
-2.08969e-10
3.69233e-11
9.15548e-11
5.38519e-11
9.95672e-12
-9.61167e-12
-1.00349e-11
-4.4669e-12
-5.36166e-13
5.16478e-13
1.89583e-13
-1.31412e-13
-2.09279e-14
3.17221e-13
5.72544e-13
5.9805e-13
4.25108e-13
1.69356e-13
-5.84867e-14
-1.96222e-13
-2.33791e-13
-1.9617e-13
-1.21722e-13
-4.5117e-14
1.17835e-14
4.14933e-14
4.73936e-14
3.82545e-14
2.333e-14
9.37799e-15
-2.38896e-16
-4.9894e-15
-5.9898e-15
-4.87173e-15
-3.04236e-15
-1.38252e-15
-2.59742e-16
3.08785e-16
4.73038e-16
4.14934e-16
2.77417e-16
1.4461e-16
5.07796e-17
-8.9955e-19
-2.11323e-17
-2.3204e-17
-1.75805e-17
-1.0566e-17
-4.98495e-18
-1.59357e-18
5.3327e-19
0.999982
1.00016
1.00019
0.998814
0.996675
0.999337
1.01347
1.03578
1.04504
1.0083
0.900056
0.720671
0.5
0.283765
0.112406
0.00559006
-0.0404869
-0.0448875
-0.0300111
-0.0126941
-0.0011218
0.00354557
0.00365566
0.00204819
0.000547226
-0.000222631
-0.000374148
-0.000240368
-7.5744e-05
1.67653e-05
3.82309e-05
2.51857e-05
7.65639e-06
-2.05941e-06
-4.049e-06
-2.47373e-06
-6.13084e-07
3.15741e-07
4.32726e-07
2.26279e-07
3.32724e-08
-4.63187e-08
-4.47952e-08
-1.85529e-08
3.90506e-10
6.09476e-09
4.32726e-09
1.24241e-09
-4.51834e-10
-7.15406e-10
-3.75116e-10
-4.64436e-11
8.41212e-11
7.53808e-11
2.84416e-11
-2.44733e-12
-1.01171e-11
-6.39751e-12
-1.84588e-12
-1.18841e-13
-4.0627e-13
-9.8284e-13
-9.64617e-13
-3.95691e-13
2.97795e-13
7.61186e-13
8.72051e-13
6.973e-13
3.85264e-13
7.66421e-14
-1.40696e-13
-2.39221e-13
-2.36839e-13
-1.73859e-13
-9.21244e-14
-2.18527e-14
2.26862e-14
4.07614e-14
3.9551e-14
2.84721e-14
1.53386e-14
4.78277e-15
-1.58826e-15
-4.1749e-15
-4.25205e-15
-3.14128e-15
-1.79656e-15
-7.20148e-16
-6.06594e-17
2.3529e-16
2.94381e-16
2.37994e-16
1.49847e-16
7.3486e-17
2.32241e-17
-2.66266e-18
-1.18141e-17
-1.19681e-17
-8.79779e-18
-4.24656e-18
0.999983
1.00003
1.00026
0.999957
0.998132
0.996485
1.00096
1.01677
1.03844
1.04428
1.00347
0.893561
0.716235
0.5
0.287787
0.11792
0.00983944
-0.0389223
-0.0457452
-0.0320359
-0.0146108
-0.00224409
0.00325288
0.00386074
0.00238115
0.000786327
-0.00013018
-0.000382519
-0.00028358
-0.000111168
1.68149e-06
3.81078e-05
3.04963e-05
1.21584e-05
-1.87578e-07
-4.07657e-06
-3.1397e-06
-1.13857e-06
1.23036e-07
4.5745e-07
3.10103e-07
9.02055e-08
-3.01282e-08
-5.11535e-08
-2.87229e-08
-5.24111e-09
5.16569e-09
5.46332e-09
2.39359e-09
3.69694e-11
-7.25585e-10
-5.41099e-10
-1.66239e-10
4.88181e-11
8.76327e-11
4.89055e-11
9.3436e-12
-6.85109e-12
-6.46458e-12
-1.89221e-12
3.63215e-13
-1.66867e-13
-1.57658e-12
-2.32156e-12
-2.00897e-12
-1.03005e-12
3.34197e-14
7.75672e-13
1.06101e-12
9.59893e-13
6.39472e-13
2.70917e-13
-2.51005e-14
-1.95334e-13
-2.43721e-13
-2.07633e-13
-1.33182e-13
-5.77479e-14
-2.50081e-15
2.68021e-14
3.45376e-14
2.91713e-14
1.8769e-14
8.79002e-15
1.77459e-15
-1.91181e-15
-3.04933e-15
-2.72399e-15
-1.84258e-15
-9.64998e-16
-3.3361e-16
1.81837e-17
1.56079e-16
1.68296e-16
1.26671e-16
7.54353e-17
3.48571e-17
9.76555e-18
-2.15272e-18
-6.95558e-18
0.999994
0.999978
1.00012
1.0003
0.999599
0.997507
0.996583
1.00278
1.01986
1.04061
1.04321
0.998845
0.887594
0.712213
0.5
0.291459
0.123039
0.0139117
-0.0372711
-0.0463857
-0.0338802
-0.0164687
-0.00341188
0.00287833
0.00400571
0.00269582
0.00103755
-1.67195e-05
-0.000376094
-0.000322165
-0.000148743
-1.73631e-05
3.52842e-05
3.50019e-05
1.7025e-05
2.3144e-06
-3.70406e-06
-3.70485e-06
-1.72852e-06
-1.6006e-07
4.31511e-07
3.8528e-07
1.58213e-07
-2.04541e-09
-5.19696e-08
-3.86689e-08
-1.26124e-08
2.80925e-09
6.09232e-09
3.64131e-09
7.71744e-10
-5.80828e-10
-6.72319e-10
-3.122e-10
-1.89103e-11
8.26915e-11
6.56358e-11
2.28267e-11
-1.52029e-12
-5.09289e-12
-3.81174e-13
3.02178e-12
2.56812e-12
-6.80288e-14
-2.54112e-12
-3.59556e-12
-3.19003e-12
-1.93341e-12
-5.26259e-13
5.45975e-13
1.08897e-12
1.14284e-12
8.76838e-13
4.88286e-13
1.32832e-13
-1.05655e-13
-2.1145e-13
-2.13648e-13
-1.58411e-13
-8.762e-14
-2.82179e-14
8.94703e-15
2.47046e-14
2.5614e-14
1.91485e-14
1.10092e-14
4.358e-15
2.28527e-16
-1.63175e-15
-1.98336e-15
-1.58947e-15
-9.90798e-16
-4.74374e-16
-1.3613e-16
3.55004e-17
9.27656e-17
8.91422e-17
6.29074e-17
3.62267e-17
1.0996e-17
1
0.999978
1.00001
1.00021
1.00025
0.999162
0.996984
0.996931
1.00472
1.02272
1.04237
1.04193
0.99441
0.88208
0.708541
0.5
0.294834
0.127814
0.0178165
-0.035558
-0.0468395
-0.0355575
-0.0182615
-0.00461091
0.00243196
0.00409206
0.00298801
0.00129613
0.000115423
-0.000354624
-0.00035473
-0.000187304
-3.99542e-05
2.95993e-05
3.83716e-05
2.20318e-05
5.39077e-06
-2.88567e-06
-4.10654e-06
-2.34794e-06
-5.28881e-07
3.45069e-07
4.41811e-07
2.32813e-07
3.80407e-08
-4.54778e-08
-4.70098e-08
-2.12656e-08
-1.11299e-09
5.93983e-09
4.81989e-09
1.72146e-09
-2.45321e-10
-7.28436e-10
-4.64118e-10
-1.16533e-10
5.55496e-11
7.28854e-11
3.34233e-11
2.07723e-12
-5.65482e-12
8.11709e-14
6.61407e-12
8.18416e-12
5.26851e-12
7.62799e-13
-2.85748e-12
-4.51725e-12
-4.32873e-12
-3.00244e-12
-1.33911e-12
6.40154e-14
9.13299e-13
1.18761e-12
1.03936e-12
6.81813e-13
3.01384e-13
1.26688e-14
-1.4585e-13
-1.90408e-13
-1.62613e-13
-1.05252e-13
-4.88902e-14
-8.64389e-15
1.26606e-14
1.90942e-14
1.6846e-14
1.12741e-14
5.76903e-15
1.82738e-15
-3.40369e-16
-1.15015e-15
-1.16655e-15
-8.52166e-16
-4.91923e-16
-2.14465e-16
-4.75696e-17
2.94745e-17
5.03537e-17
4.2388e-17
1
0.999992
0.999971
1.00006
1.00029
1.00011
0.998686
0.996583
0.997489
1.00671
1.02537
1.04378
1.04049
0.990161
0.876961
0.705166
0.5
0.297951
0.132283
0.0215636
-0.0338022
-0.0471324
-0.0370806
-0.0199854
-0.00582946
0.00192307
0.00412207
0.00325471
0.00155785
0.0002638
-0.000318255
-0.000380175
-0.000225738
-6.55836e-05
2.10018e-05
4.03256e-05
2.69479e-05
8.95689e-06
-1.59756e-06
-4.28826e-06
-2.9575e-06
-9.72493e-07
1.91739e-07
4.69999e-07
3.08361e-07
8.91629e-08
-3.0336e-08
-5.22862e-08
-3.05162e-08
-6.58737e-09
4.76558e-09
5.73203e-09
2.81603e-09
2.97147e-10
-6.69515e-10
-5.9311e-10
-2.31884e-10
8.56864e-12
6.97184e-11
3.91407e-11
5.79816e-13
-1.31916e-11
-6.454e-12
5.76895e-12
1.32129e-11
1.34263e-11
8.7497e-12
2.67792e-12
-2.21433e-12
-4.81371e-12
-5.18515e-12
-4.04376e-12
-2.27444e-12
-6.05476e-13
5.44221e-13
1.06927e-12
1.08622e-12
8.09302e-13
4.45408e-13
1.34858e-13
-6.14678e-14
-1.44215e-13
-1.46476e-13
-1.08216e-13
-6.09222e-14
-2.24796e-14
1.14371e-15
1.14142e-14
1.28287e-14
9.94323e-15
5.99886e-15
2.70481e-15
6.04689e-16
-4.14348e-16
-7.07881e-16
-6.28089e-16
-4.2316e-16
-2.26607e-16
-9.19908e-17
3.94958e-18
1
1
0.99998
0.999981
1.00013
1.00033
0.999903
0.998204
0.996314
0.998219
1.00873
1.02779
1.04489
1.03892
0.986088
0.872186
0.702049
0.5
0.300845
0.136483
0.0251626
-0.0320184
-0.0472861
-0.0384617
-0.0216386
-0.00705794
0.0013602
0.00409858
0.0034938
0.00181902
0.00042595
-0.000267441
-0.000397667
-0.000263018
-9.36835e-05
9.53536e-06
4.06398e-05
3.15468e-05
1.2906e-05
1.62695e-07
-4.20216e-06
-3.51595e-06
-1.47456e-06
-3.10587e-08
4.61102e-07
3.78447e-07
1.4932e-07
-5.75191e-09
-5.30813e-08
-3.94969e-08
-1.34354e-08
2.39132e-09
6.16476e-09
3.94564e-09
1.03324e-09
-4.66938e-10
-6.68998e-10
-3.45969e-10
-4.73496e-11
6.41493e-11
4.65387e-11
-2.44701e-12
-2.87447e-11
-2.55074e-11
-7.64088e-12
9.47754e-12
1.82816e-11
1.836e-11
1.28964e-11
5.66521e-12
-5.34429e-13
-4.31907e-12
-5.53936e-12
-4.8358e-12
-3.1514e-12
-1.34164e-12
4.42573e-14
8.05418e-13
1.00673e-12
8.46374e-13
5.37441e-13
2.36748e-13
2.37587e-14
-8.63116e-14
-1.15544e-13
-9.7997e-14
-6.34123e-14
-3.06298e-14
-7.79888e-15
4.25228e-15
8.24282e-15
7.66482e-15
5.32237e-15
2.90326e-15
1.13068e-15
1.15845e-16
-3.13002e-16
-3.91239e-16
-3.15961e-16
-1.6833e-16
1
1
0.999995
0.99997
1.00001
1.0002
1.00032
0.999638
0.997741
0.996174
0.999086
1.01073
1.03001
1.04575
1.03727
0.982184
0.867717
0.699155
0.5
0.303542
0.14044
0.0286225
-0.0302183
-0.0473191
-0.0397121
-0.0232206
-0.00828853
0.000751047
0.00402473
0.00370393
0.00207651
0.00059947
-0.000202868
-0.000406618
-0.000298222
-0.000123655
-4.67632e-06
3.91468e-05
3.56146e-05
1.71156e-05
2.37783e-06
-3.81077e-06
-3.98233e-06
-2.0144e-06
-3.22034e-07
4.07863e-07
4.36301e-07
2.15593e-07
2.84395e-08
-4.81301e-08
-4.72146e-08
-2.13112e-08
-1.27195e-09
5.9119e-09
4.96727e-09
1.91333e-09
-1.16565e-10
-6.74338e-10
-4.44734e-10
-1.00647e-10
7.0015e-11
7.24875e-11
9.30045e-12
-4.12154e-11
-5.38303e-11
-3.78306e-11
-1.20195e-11
9.53229e-12
2.09102e-11
2.23636e-11
1.71932e-11
9.34149e-12
1.98717e-12
-3.0425e-12
-5.27152e-12
-5.20241e-12
-3.79559e-12
-2.00441e-12
-4.91557e-13
4.49125e-13
8.21433e-13
7.92076e-13
5.64901e-13
3.0173e-13
9.4158e-14
-2.88729e-14
-7.77882e-14
-7.88156e-14
-5.78347e-14
-3.29039e-14
-1.32051e-14
-1.26345e-15
4.05276e-15
5.11803e-15
4.1388e-15
2.60666e-15
1.28425e-15
4.1474e-16
-2.59092e-17
-2.2554e-16
1
1
1
0.999986
0.999968
1.00005
1.00027
1.00027
0.999331
0.997313
0.996157
1.00006
1.01269
1.03204
1.04639
1.03556
0.978436
0.863517
0.696458
0.5
0.306067
0.144179
0.0319521
-0.0284107
-0.0472471
-0.0408424
-0.0247318
-0.00951485
0.000102559
0.00390383
0.00388439
0.00232765
0.000782063
-0.000125388
-0.000406654
-0.000330536
-0.00015489
-2.1445e-05
3.57346e-05
3.89561e-05
2.14541e-05
5.01315e-06
-3.08783e-06
-4.31774e-06
-2.56818e-06
-6.76185e-07
3.04892e-07
4.75188e-07
2.84306e-07
7.1743e-08
-3.64165e-08
-5.26126e-08
-2.9709e-08
-6.19693e-09
4.80646e-09
5.72598e-09
2.85801e-09
3.5596e-10
-6.17534e-10
-5.36463e-10
-1.57399e-10
9.12249e-11
1.33896e-10
6.1615e-11
-2.39316e-11
-7.12773e-11
-7.5102e-11
-5.19068e-11
-2.07519e-11
5.319e-12
2.05552e-11
2.47529e-11
2.08965e-11
1.30727e-11
4.93205e-12
-1.17821e-12
-4.40536e-12
-5.06741e-12
-4.09028e-12
-2.47582e-12
-9.65134e-13
7.05484e-14
5.72797e-13
6.66017e-13
5.31345e-13
3.24057e-13
1.40176e-13
1.84605e-14
-4.09488e-14
-5.58774e-14
-4.70661e-14
-3.04465e-14
-1.51509e-14
-4.6904e-15
8.45226e-16
2.82648e-15
2.82749e-15
2.0419e-15
1.19737e-15
3.69127e-16
1
1
1
0.999999
0.999976
0.999976
1.0001
1.00032
1.00018
0.998997
0.996934
0.996254
1.00112
1.01461
1.03388
1.04684
1.0338
0.974837
0.85956
0.693933
0.5
0.308436
0.147722
0.0351593
-0.0266028
-0.0470838
-0.0418621
-0.0261734
-0.0107318
-0.000579061
0.00373921
0.00403491
0.00257022
0.000971575
-3.59692e-05
-0.000397589
-0.000359261
-0.000186791
-4.05324e-05
3.03429e-05
4.13993e-05
2.57856e-05
8.01928e-06
-2.01859e-06
-4.48692e-06
-3.11006e-06
-1.08514e-06
1.48914e-07
4.88768e-07
3.5122e-07
1.23006e-07
-1.72575e-08
-5.46457e-08
-3.79872e-08
-1.22211e-08
2.7589e-09
6.09349e-09
3.78777e-09
9.12743e-10
-5.28312e-10
-6.5989e-10
-2.59825e-10
9.73565e-11
2.23225e-10
1.70581e-10
5.47531e-11
-4.22594e-11
-9.00205e-11
-9.25773e-11
-6.75881e-11
-3.32379e-11
-2.68631e-12
1.71877e-11
2.50286e-11
2.32899e-11
1.61714e-11
7.77788e-12
9.47818e-13
-3.09941e-12
-4.47084e-12
-4.00389e-12
-2.68982e-12
-1.30223e-12
-2.64317e-13
3.1043e-13
4.9968e-13
4.52527e-13
3.08137e-13
1.59497e-13
5.04496e-14
-1.06345e-14
-3.37995e-14
-3.42721e-14
-2.50606e-14
-1.44137e-14
-6.1638e-15
-1.19296e-15
1.08082e-15
1.66321e-15
1.3469e-15
1
1
1
1
0.999993
0.999969
0.999995
1.00016
1.00035
1.00004
0.998649
0.99661
0.996454
1.00224
1.01647
1.03556
1.04713
1.03202
0.971377
0.855821
0.691564
0.5
0.310668
0.151087
0.0382517
-0.0248
-0.0468406
-0.0427801
-0.0275469
-0.0119352
-0.00128828
0.0035342
0.00415565
0.00280238
0.00116601
6.43519e-05
-0.000379392
-0.000383812
-0.000218782
-6.16627e-05
2.29581e-05
4.27974e-05
2.99747e-05
1.1335e-05
-5.9948e-07
-4.45927e-06
-3.61335e-06
-1.53759e-06
-6.11207e-08
4.71396e-07
4.11739e-07
1.8045e-07
9.62053e-09
-5.23732e-08
-4.54245e-08
-1.90576e-08
-2.20225e-10
6.009e-09
4.67099e-09
1.55062e-09
-4.19383e-10
-8.61315e-10
-4.82609e-10
9.16462e-12
2.81456e-10
3.11152e-10
2.03542e-10
6.5238e-11
-4.16251e-11
-9.68407e-11
-1.05401e-10
-8.30901e-11
-4.75259e-11
-1.31244e-11
1.13396e-11
2.30732e-11
2.3916e-11
1.8095e-11
1.00424e-11
2.97071e-12
-1.59469e-12
-3.54618e-12
-3.58743e-12
-2.64191e-12
-1.46775e-12
-5.0975e-13
7.72218e-14
3.26119e-13
3.49811e-13
2.65053e-13
1.55789e-13
6.63528e-14
1.04352e-14
-1.567e-14
-2.20551e-14
-1.85611e-14
-1.2053e-14
-6.15458e-15
-2.24841e-15
4.24966e-16
1
1
1
1
1
0.999985
0.999966
1.00002
1.00022
1.00036
0.999873
0.998298
0.996344
0.996747
1.00341
1.01826
1.03708
1.04729
1.03022
0.968048
0.852278
0.689332
0.5
0.312776
0.154289
0.0412361
-0.0230068
-0.0465277
-0.0436044
-0.0288545
-0.0131217
-0.0020202
0.00329203
0.00424704
0.00302265
0.00136354
0.0001745
-0.000352164
-0.000403711
-0.000250322
-8.45349e-05
1.36085e-05
4.30305e-05
3.38904e-05
1.48899e-05
1.16251e-06
-4.2097e-06
-4.05146e-06
-2.01983e-06
-3.24011e-07
4.18387e-07
4.61132e-07
2.41741e-07
4.40237e-08
-4.50662e-08
-5.13196e-08
-2.63602e-08
-4.04902e-09
5.48372e-09
5.55762e-09
2.35759e-09
-2.18486e-10
-1.12972e-09
-8.84905e-10
-2.78791e-10
1.94501e-10
3.93363e-10
3.74142e-10
2.45526e-10
9.59605e-11
-2.3376e-11
-9.24614e-11
-1.1225e-10
-9.58502e-11
-6.10482e-11
-2.41525e-11
3.99601e-12
1.92088e-11
2.26986e-11
1.85773e-11
1.14008e-11
4.58189e-12
-1.43722e-13
-2.47326e-12
-2.94836e-12
-2.37935e-12
-1.4668e-12
-6.47109e-13
-9.93814e-14
1.71777e-13
2.43734e-13
2.08175e-13
1.36146e-13
6.87601e-14
2.21632e-14
-2.8253e-15
-1.204e-14
-1.23355e-14
-9.17431e-15
-4.36717e-15
1
1
1
1
1
0.999999
0.999977
0.999969
1.00006
1.00027
1.00034
0.999674
0.997952
0.996139
0.997122
1.00461
1.01999
1.03846
1.04732
1.02841
0.964841
0.848913
0.687224
0.5
0.314771
0.157342
0.0441189
-0.0212264
-0.0461536
-0.0443425
-0.0300982
-0.0142888
-0.00277045
0.0030158
0.00430973
0.00322985
0.00156249
0.000293389
-0.000316114
-0.000418577
-0.000280908
-0.000108832
2.3583e-06
4.2005e-05
3.74091e-05
1.86074e-05
3.25082e-06
-3.71908e-06
-4.39885e-06
-2.51633e-06
-6.36372e-07
3.26243e-07
4.94785e-07
3.0412e-07
8.5291e-08
-3.22929e-08
-5.5109e-08
-3.38449e-08
-8.68038e-09
4.52328e-09
6.54296e-09
3.52478e-09
2.8771e-10
-1.31229e-09
-1.41967e-09
-8.22548e-10
-1.60218e-10
2.76044e-10
4.47303e-10
4.24273e-10
2.97491e-10
1.4173e-10
7.56542e-12
-7.86788e-11
-1.1211e-10
-1.03534e-10
-7.14129e-11
-3.39231e-11
-3.64231e-12
1.41059e-11
1.99306e-11
1.76603e-11
1.17417e-11
5.59446e-12
1.05185e-12
-1.42711e-12
-2.21437e-12
-1.97932e-12
-1.33444e-12
-6.8256e-13
-2.09623e-13
5.23342e-14
1.49635e-13
1.49486e-13
1.08433e-13
6.19279e-14
2.62156e-14
4.82091e-15
-4.76333e-15
-7.66432e-15
1
1
1
1
1
1
0.999994
0.99997
0.999978
1.0001
1.00032
1.00029
0.999453
0.997619
0.995994
0.997568
1.00583
1.02164
1.03971
1.04725
1.0266
0.961748
0.845711
0.685229
0.5
0.316664
0.160259
0.0469061
-0.0194615
-0.0457261
-0.045001
-0.0312804
-0.0154344
-0.0035352
0.00270848
0.00434457
0.00342307
0.00176139
0.000419943
-0.000271537
-0.000428126
-0.00031008
-0.000134231
-1.0698e-05
3.96535e-05
4.04166e-05
2.24071e-05
5.6404e-06
-2.97445e-06
-4.63172e-06
-3.01026e-06
-9.92778e-07
1.92835e-07
5.0849e-07
3.64636e-07
1.32411e-07
-1.39026e-08
-5.64279e-08
-4.14064e-08
-1.42583e-08
2.95813e-09
7.61801e-09
5.24848e-09
1.42538e-09
-1.07442e-09
-1.84494e-09
-1.52025e-09
-8.13937e-10
-1.61979e-10
2.67404e-10
4.59525e-10
4.64287e-10
3.51975e-10
1.9296e-10
4.455e-11
-5.81914e-11
-1.04901e-10
-1.04797e-10
-7.70103e-11
-4.10036e-11
-1.04419e-11
8.5926e-12
1.61556e-11
1.5636e-11
1.11564e-11
5.96368e-12
1.87701e-12
-5.3972e-13
-1.50043e-12
-1.52476e-12
-1.12035e-12
-6.38964e-13
-2.58451e-13
-2.74277e-14
7.59807e-14
9.74378e-14
7.93298e-14
5.01997e-14
2.55642e-14
4.47086e-15
1
1
1
1
1
1
1
0.999988
0.999965
0.999994
1.00015
1.00035
1.00022
0.999214
0.997304
0.995908
0.998077
1.00706
1.02322
1.04084
1.04708
1.0248
0.958764
0.842658
0.683336
0.5
0.318465
0.16305
0.0496032
-0.0177142
-0.0452515
-0.0455862
-0.0324034
-0.016557
-0.00431106
0.00237287
0.00435251
0.00360162
0.00195888
0.000553114
-0.000218795
-0.000432155
-0.000337425
-0.000160408
-2.54409e-05
3.59334e-05
4.28101e-05