/*--------------------------------*- C++ -*----------------------------------*\
  =========                 |
  \\      /  F ield         | OpenFOAM: The Open Source CFD Toolbox
   \\    /   O peration     | Website:  https://openfoam.org
    \\  /    A nd           | Version:  7
     \\/     M anipulation  |
\*---------------------------------------------------------------------------*/
FoamFile
{
    version     2.0;
    format      ascii;
    class       volScalarField;
    location    "0.1";
    object      T;
}
// * * * * * * * * * * * * * * * * * * * * * * * * * * * * * * * * * * * * * //

dimensions      [0 0 0 1 0 0 0];

internalField   nonuniform List<scalar> 
5936
(
0.510403
0.913154
0.998127
0.98039
1.00388
1.01131
0.999855
1.00146
0.997956
0.995179
0.99749
0.993564
0.997585
0.993397
0.997627
0.99332
0.997564
0.993376
0.997683
0.993366
0.997633
0.993327
0.997575
0.993501
0.997708
0.993399
0.997659
0.993131
0.997442
0.99338
0.997562
0.993392
0.997599
0.993298
0.997515
0.9935
0.997676
0.993296
0.997321
0.993423
0.997625
0.993398
0.99765
0.993332
0.997606
0.993392
0.997685
0.993051
0.997296
0.993002
0.997456
0.993486
0.99782
0.993602
0.997694
0.993481
0.997558
0.993451
0.997707
0.99336
0.997662
0.993116
0.997441
0.993368
0.997562
0.993382
0.997617
0.993297
0.997577
0.993506
0.997752
0.993276
0.997668
0.993537
0.997591
0.993269
0.997453
0.992955
0.997344
0.993312
0.997562
0.993404
0.997389
0.993256
0.997424
0.99344
0.997626
0.993242
0.997836
0.993202
0.997506
0.993284
0.99634
0.992396
0.995323
0.992149
0.994176
0.991121
0.99293
0.114981
-0.00303406
-0.000393121
-6.63742e-06
4.59161e-07
2.34475e-08
5.08371e-10
2.96681e-12
-1.59122e-13
-4.72568e-15
-5.4682e-17
2.27957e-19
2.02506e-20
3.79291e-22
4.14635e-24
1.14484e-26
-4.24815e-28
-9.60727e-30
-1.08561e-31
-6.33699e-34
1.80027e-36
9.21294e-38
1.17765e-39
9.50658e-42
-2.46577e-60
6.51768e-44
-9.42656e-42
-2.16541e-39
1.01195e-37
6.04268e-36
-1.08295e-34
-7.81731e-34
-1.22531e-31
4.43207e-31
-1.49448e-29
-1.42247e-28
-7.94234e-28
-7.15858e-27
-2.53531e-26
2.55043e-26
-2.14845e-25
3.67968e-25
9.2156e-24
6.12931e-23
7.15425e-23
1.76433e-22
4.37327e-22
4.72371e-22
2.8935e-22
1.86869e-22
1.04573
1.02201
0.998747
1.02583
0.786561
0.853122
0.530977
0.606493
0.318734
0.376737
0.175738
0.213764
0.0885045
0.110289
0.0430202
0.054097
0.0185635
0.0240926
0.00779516
0.0102011
0.00324057
0.00426162
0.00132913
0.00175862
0.000513235
0.000689878
0.000199557
0.000267961
7.53649e-05
0.000102047
2.73356e-05
3.73797e-05
9.93522e-06
1.36136e-05
3.39229e-06
4.71929e-06
1.15788e-06
1.6037e-06
4.13059e-07
5.67676e-07
1.33232e-07
1.86057e-07
4.36653e-08
6.09261e-08
1.39119e-08
1.96073e-08
4.24461e-09
5.99449e-09
1.38737e-09
1.94246e-09
4.2706e-10
6.04856e-10
1.30023e-10
1.84378e-10
4.00038e-11
5.66759e-11
1.18028e-11
1.68548e-11
3.50097e-12
4.99274e-12
1.052e-12
1.49364e-12
3.08865e-13
4.40682e-13
8.82204e-14
1.26243e-13
2.55541e-14
3.66124e-14
6.97986e-15
1.00234e-14
1.98431e-15
2.84118e-15
5.59226e-16
8.04176e-16
1.48623e-16
2.14137e-16
4.13844e-17
5.95063e-17
1.09843e-17
1.59429e-17
2.86117e-18
4.13969e-18
7.86342e-19
1.14033e-18
2.07029e-19
3.02135e-19
5.63623e-20
8.23363e-20
1.49589e-20
2.23304e-20
4.30144e-21
6.53058e-21
1.57664e-21
2.47677e-21
6.09089e-22
2.8187e-22
9.55257e-22
1.30778e-43
3.05264e-22
0.0113574
-0.00152958
-6.99481e-05
6.30538e-07
1.18104e-07
3.77966e-09
5.28075e-11
-3.50832e-13
-3.20654e-14
-5.76486e-16
-3.0405e-18
1.05882e-19
2.91536e-21
4.26778e-23
3.09139e-25
-1.38482e-27
-7.6445e-29
-1.08058e-30
-9.19865e-33
-2.68398e-35
5.90565e-37
1.11631e-38
1.09759e-40
-0.00152476
8.62808e-43
4.76463e-22
3.88734e-42
8.79816e-41
-1.94014e-38
1.19059e-37
-3.67774e-36
-1.72281e-34
1.12903e-32
4.38557e-31
1.35986e-30
3.06791e-29
-1.76417e-28
5.95158e-27
-3.96589e-27
1.09808e-25
2.01923e-25
1.2865e-24
-4.26378e-25
3.02988e-23
9.17887e-23
7.36008e-23
3.13235e-22
4.90008e-22
4.18911e-22
-3.52726e-05
0.0624371
1.57579e-06
0.45583
-0.000295611
7.15111e-07
5.0758e-07
1.77877e-08
2.85017e-10
-6.13057e-13
-1.43762e-13
-3.03092e-15
-2.27761e-17
4.27306e-19
1.54727e-20
2.36856e-22
2.00969e-24
-3.24752e-27
-3.65257e-28
-6.19059e-30
-5.77625e-32
-2.19357e-34
2.78719e-36
6.42175e-38
6.67233e-40
4.54189e-42
1.106e-40
-2.94567e-38
2.31941e-37
-7.02591e-36
-2.73214e-34
1.60015e-32
6.67353e-31
1.7566e-30
4.32548e-29
-2.85149e-28
9.07983e-27
-6.47306e-27
1.70892e-25
3.0813e-25
1.9744e-24
-3.01579e-25
4.84443e-23
1.44848e-22
1.20466e-22
4.94687e-22
7.60651e-22
6.44951e-22
6.01205e-42
1.01267e-07
2.46247e-09
2.09987e-11
-5.71816e-13
-2.35669e-14
-3.22313e-16
3.3772e-20
9.84449e-20
1.99983e-21
2.41279e-23
1.05425e-25
-1.95945e-27
-5.46816e-29
-6.3333e-31
-4.24976e-33
3.21776e-36
4.95997e-37
6.8807e-39
5.613e-41
-3.44727e-39
1.68219e-37
9.25083e-36
-1.71989e-34
-1.16274e-33
-1.7767e-31
7.33839e-31
-2.263e-29
-2.18772e-28
-1.14997e-27
-1.11396e-26
-3.78115e-26
4.62443e-26
-2.93044e-25
6.34858e-25
1.49369e-23
9.72241e-23
1.14908e-22
2.81753e-22
6.8744e-22
7.32922e-22
4.68644e-22
-0.00660343
-0.00562209
-1.47914e-41
0.595032
-0.000642246
0.960513
1.00841
1.00518
1.01357
1.03364
1.01285
1.03511
1.01213
1.03556
1.01113
1.03532
1.01113
1.03299
1.01051
1.0322
1.0102
1.03093
1.01025
1.03079
1.01025
1.03175
1.00978
1.03143
1.01051
1.03076
1.01084
1.03204
1.00973
1.03157
1.01093
1.03107
1.0101
1.03235
1.01073
1.03046
1.01062
1.03193
1.0102
1.03243
1.01081
1.03124
1.01064
1.03292
1.01125
1.03206
1.01119
1.03201
1.01013
1.03239
1.00972
1.03047
1.0101
1.03059
1.01014
1.03163
1.00972
1.03132
1.01048
1.0307
1.01082
1.03198
1.00968
1.03152
1.01071
1.03098
1.00972
1.03201
1.00957
1.02959
1.01002
1.03072
1.01037
1.03102
1.01093
1.03102
1.01128
1.03268
1.01111
1.03245
1.0115
1.03162
1.0116
1.03295
1.00967
1.0308
1.01022
1.02844
1.01318
1.0296
1.01505
1.02929
1.0211
1.03583
1.03058
-3.4425e-41
0.0061377
-5.17505e-05
0.25795
-1.04658e-06
1.34958e-08
1.18498e-09
2.78409e-11
1.61388e-13
-8.98316e-15
-2.92765e-16
-4.55573e-18
-2.27635e-20
5.17351e-22
1.57041e-23
2.0602e-25
1.50117e-27
-6.85914e-30
-3.25981e-31
-4.72241e-33
-3.77314e-35
-4.80882e-38
2.72703e-39
3.50956e-41
-7.51838e-39
-0.000625016
0.0014532
-0.0012788
4.14027e-43
9.37406e-22
1.44785e-21
-4.81505e-08
-4.30687e-07
1.13701e-08
0.53648
4.18515e-37
1.75201e-35
-3.74743e-34
-1.90746e-33
-3.15378e-31
1.37791e-30
-4.56385e-29
-4.75553e-28
-1.83789e-27
-2.5462e-26
-6.63224e-26
7.93685e-26
-4.91301e-25
1.01027e-24
3.58353e-23
2.01613e-22
2.14667e-22
6.11934e-22
1.39308e-21
1.42148e-21
7.88959e-22
1.60036e-21
0.0533474
0.194139
0.0310177
-0.000223992
-0.000630357
-0.00017577
-8.87317e-06
-5.07771e-06
0.990429
1.04172
0.776551
0.867498
0.536915
0.631553
0.324458
0.396076
0.181072
0.227052
0.0918512
0.119395
0.0434003
0.0567004
0.0191367
0.025611
0.00808632
0.0109073
0.00341819
0.0046208
0.00138319
0.00187603
0.000559185
0.000765164
0.000216769
0.000299499
8.10439e-05
0.000112284
3.07421e-05
4.2636e-05
1.09123e-05
1.52047e-05
3.83229e-06
5.36365e-06
1.32889e-06
1.87829e-06
4.4153e-07
6.22331e-07
1.46858e-07
2.09347e-07
4.88833e-08
6.92465e-08
1.57302e-08
2.23403e-08
4.89076e-09
7.05426e-09
1.57792e-09
2.2428e-09
4.90673e-10
7.00335e-10
1.56376e-10
2.23709e-10
4.67872e-11
6.72158e-11
1.36118e-11
1.95435e-11
4.27964e-12
6.12465e-12
1.24248e-12
1.8019e-12
3.56511e-13
5.13978e-13
1.07482e-13
1.55012e-13
3.03179e-14
4.38006e-14
8.41151e-15
1.22535e-14
2.4208e-15
3.49089e-15
6.79693e-16
9.81253e-16
1.84412e-16
2.69497e-16
5.13002e-17
7.42269e-17
1.36547e-17
1.97977e-17
3.6754e-18
5.37858e-18
9.8453e-19
1.42475e-18
2.6435e-19
3.84463e-19
7.57867e-20
1.09785e-19
2.21234e-20
3.19176e-20
7.79568e-21
1.152e-20
0.78257
1.67604e-41
0.843614
-5.05325e-41
4.21762e-32
2.47497e-32
-3.46939e-05
4.3003e-41
9.51133e-42
-5.10237e-31
5.52602e-09
1.97787e-10
2.97927e-12
-2.29823e-14
-1.76712e-15
-4.04477e-17
-4.03945e-19
7.19429e-22
1.03478e-22
2.00836e-24
1.92128e-26
5.36472e-29
-2.09304e-30
-4.19738e-32
-4.65827e-34
-2.25078e-36
1.2642e-38
3.822e-40
-1.19632e-38
-8.98802e-34
-5.3335e-34
1.24736e-36
7.59156e-37
-5.29289e-38
2.81354e-35
-9.101e-38
-2.72084e-35
-3.3061e-33
1.5673e-08
1.44303e-30
1.59864e-30
7.43481e-29
-5.66999e-28
1.77418e-26
-1.1765e-26
3.75228e-25
6.22251e-25
4.15321e-24
1.2194e-24
1.04456e-22
2.87462e-22
2.52467e-22
1.02652e-21
1.45554e-21
1.24695e-21
1.18671e-10
7.29318e-23
1.67265e-21
1.3328e-40
-1.66073e-19
3.38834e-21
-2.36813e-17
2.14132e-21
2.12256e-21
9.13124e-22
3.29268e-22
3.04054e-22
5.32568e-23
1.71098e-24
-7.57394e-25
1.23924e-25
-1.07198e-25
-3.84842e-26
-3.12804e-27
2.23119e-40
1.29158e-38
-5.64387e-37
-2.18443e-34
-2.45072e-32
-1.58645e-30
-9.55021e-30
9.00512e-27
1.14661e-24
1.82096e-21
2.23325e-21
1.56278e-21
3.80313e-22
4.37617e-22
1.55453e-22
1.34279e-24
6.36428e-24
9.67333e-25
5.80558e-25
-1.8199e-26
2.72418e-26
-9.07012e-28
1.18611e-28
3.31386e-30
-3.59877e-35
1.97752e-39
3.80209e-38
-1.50775e-35
-2.57263e-33
-2.08309e-31
-8.09144e-30
5.25031e-28
1.06802e-25
9.78516e-24
4.40917e-22
-3.20343e-21
-2.29591e-18
-1.84633e-16
-7.23845e-15
-1.81345e-14
1.47809e-11
7.93805e-10
2.18431e-30
-1.22777e-15
-2.9615e-14
1.21152e-12
4.33987e-09
6.43569e-37
-7.17955e-28
-5.79417e-34
-6.93705e-29
2.31053e-30
-1.40585e-05
6.46182e-32
1.0213
1.03494
1.01199
1.03739
1.02309
1.03858
1.02614
1.0382
1.02952
1.03984
1.03294
1.03899
1.03309
1.03887
1.03297
1.03927
1.03273
1.03888
1.03225
1.03885
1.03255
1.03913
1.0313
1.03945
1.0329
1.03778
1.03195
1.03989
1.03105
1.03911
1.03312
1.03965
1.03171
1.03866
1.03055
1.03892
1.03096
1.03911
1.03184
1.03819
1.03141
1.03957
1.03178
1.03903
1.03228
1.03895
1.03304
1.03907
1.03301
1.0394
1.0332
1.03893
1.03243
1.03891
1.03265
1.03916
1.03135
1.03947
1.03289
1.03777
1.03193
1.03981
1.0312
1.03898
1.0338
1.04014
1.03395
1.03918
1.03323
1.03882
1.03248
1.03913
1.03168
1.03914
1.03103
1.03848
1.03115
1.03876
1.0302
1.03926
1.03078
1.03875
1.03332
1.04316
1.03371
1.05039
1.03245
1.04345
1.00452
1.01989
-1.73185e-33
-1.16971e-18
-1.51584e-27
5.35429e-21
1.53471e-36
4.48395e-30
-3.88898e-23
1.03086e-09
2.52611e-10
2.30399e-09
5.95679e-11
1.32059e-12
9.91557e-15
3.95483e-21
-2.21397e-16
2.5576e-21
-8.91587e-18
-5.72348e-18
-2.81175e-40
-1.38149e-20
-1.09712e-21
-6.92499e-21
-4.11425e-22
3.3946e-21
1.92337e-24
5.06218e-26
5.98271e-28
2.52356e-30
-3.74759e-32
-1.11904e-33
-1.24361e-35
-7.95664e-38
-3.45559e-08
-9.89761e-09
-1.40499e-16
-5.67241e-16
-1.49989e-37
2.39185e-36
-8.31306e-31
-1.3366e-30
6.71506e-30
5.23346e-35
-1.32864e-28
-5.23091e-33
-9.00318e-33
1.09551e-31
3.31635e-36
8.43787e-35
-5.063e-05
-3.99875e-05
5.39234e-31
-2.02867e-28
-1.24215e-33
-2.81542e-33
1.85724e-28
2.98909e-28
-2.27613e-27
-4.58884e-27
-8.63038e-26
-1.65e-25
2.0342e-25
-1.20107e-24
2.84103e-24
1.2258e-22
6.13616e-22
5.98174e-22
1.87076e-21
4.13489e-21
4.30127e-21
6.14955e-21
3.05649e-10
2.32672e-10
0.809344
0.894161
0.582001
0.674936
0.356944
0.43281
0.205663
0.254667
0.107488
0.137759
0.0499255
0.0655824
0.0217002
0.0291083
0.00939801
0.0126179
0.00398229
0.00536312
0.00162315
0.00221596
0.000656431
0.000897516
0.000259903
0.00035559
9.8414e-05
0.000136507
3.60617e-05
5.02051e-05
1.28511e-05
1.80441e-05
4.52759e-06
6.36517e-06
1.54411e-06
2.18485e-06
5.24601e-07
7.41579e-07
1.78319e-07
2.53717e-07
5.75676e-08
8.22343e-08
1.86036e-08
2.65304e-08
6.02355e-09
8.66364e-09
1.89801e-09
2.71269e-09
5.91746e-10
8.54825e-10
1.86651e-10
2.68534e-10
5.6869e-11
8.25162e-11
1.70952e-11
2.47994e-11
5.17088e-12
7.42955e-12
1.53091e-12
2.20735e-12
4.50047e-13
6.53472e-13
1.31557e-13
1.90746e-13
3.7437e-14
5.42699e-14
1.07075e-14
1.56521e-14
2.94596e-15
4.28782e-15
8.31221e-16
1.20724e-15
2.36515e-16
3.45796e-16
6.42332e-17
9.39607e-17
1.74793e-17
2.55344e-17
4.67061e-18
6.85662e-18
1.26329e-18
1.84134e-18
3.37282e-19
4.96052e-19
9.49895e-20
1.38822e-19
3.12278e-20
4.42522e-20
-4.90933e-17
-1.81026e-16
-3.68459e-17
2.80165e-21
4.0908e-21
4.8151e-36
-1.23778e-40
-6.66051e-19
-1.26142e-19
0.000260034
-2.46053e-40
0.953633
9.62696e-10
7.6894e-21
-2.26758e-40
9.04082e-24
7.41809e-24
5.62341e-21
2.68385e-15
3.94831e-11
9.8028e-12
6.0932e-12
1.4028e-13
-6.97687e-20
7.15716e-24
3.66131e-25
6.32006e-27
5.33721e-29
-3.70845e-32
-7.654e-33
-1.20909e-34
-1.03817e-36
-2.44877e-38
0.0180212
4.74257e-21
-3.60923e-07
-1.82521e-07
-2.84557e-27
-1.75835e-27
0.969209
-1.17341e-34
4.19107e-30
-4.34026e-26
-2.96379e-26
5.28165e-26
-2.77894e-25
8.25528e-26
1.25743e-24
1.9142e-24
1.32535e-23
9.01574e-24
3.31865e-22
8.3346e-22
7.88873e-22
3.12337e-21
6.61042e-21
0.0777255
0.0517968
1.32553e-20
-6.74665e-35
-2.5852e-06
-9.6744e-06
-1.50213e-06
6.35109e-21
2.80747e-21
9.13733e-22
9.24472e-22
1.79126e-22
4.82394e-24
-2.63259e-37
-4.94155e-37
4.69663e-21
1.17502e-21
1.26587e-21
0.00331877
0.0119536
0.00190808
4.99124e-22
0.708829
1.1769e-23
2.01036e-23
2.94066e-24
-6.28835e-36
-6.64613e-34
-3.14831e-32
5.13131e-31
3.21631e-28
3.22309e-26
7.28149e-13
-4.89362e-39
-0.000100706
-8.18123e-06
-0.000110027
-1.62309e-34
0.804542
-1.85519e-39
1.4772e-24
-5.30179e-33
-1.30481e-31
-3.43146e-38
2.02476e-29
6.60263e-14
3.47723e-27
2.43005e-25
-3.93366e-38
-7.89241e-27
1.91407e-24
2.7437e-30
-1.92895e-33
7.18529e-30
-1.29343e-25
-1.88261e-24
3.18927e-25
0.325188
-1.16375e-18
0.902474
0.912221
0.843345
0.92252
0.85569
0.932838
0.871221
0.939099
0.8817
0.93768
0.883518
0.938594
0.882422
0.938878
0.885558
0.93902
0.884283
0.937186
0.882814
0.937371
0.882133
0.938135
0.8819
0.935773
0.881395
0.936768
0.881273
0.936403
0.881149
0.932745
0.879429
0.932931
0.877085
0.936333
0.879109
0.937268
0.883275
0.937425
0.882278
0.937779
0.881796
0.938063
0.88304
0.937062
0.88183
0.939976
0.883939
0.939633
0.887043
0.939335
0.884832
0.937341
0.883038
0.937409
0.882232
0.938125
0.881891
0.935985
0.881382
0.937837
0.881558
0.938369
0.88273
0.941268
0.886209
0.938005
0.885239
0.937828
0.882515
0.937807
0.884504
0.938016
0.882174
0.935535
0.878569
0.933062
0.875403
0.937849
0.877253
0.946269
0.889619
0.961166
0.905636
0.931307
0.844905
0.885943
-1.80884e-08
-1.97711e-39
3.97518e-24
-9.88153e-35
-2.85252e-25
-4.73927e-34
8.55766e-12
8.18602e-27
7.98694e-21
-2.4479e-36
-2.81455e-18
-3.49287e-18
-1.01209e-26
-4.2662e-23
1.04576e-21
7.16734e-33
9.91389e-21
-7.69409e-38
-7.99101e-26
2.49414e-26
3.22564e-26
3.06513e-13
1.54525e-29
1.3165e-31
5.40678e-32
-3.2367e-35
-3.04773e-34
9.27868e-21
-5.42068e-27
-1.73908e-26
4.66521e-15
8.93956e-21
5.75902e-36
1.19194e-29
-1.90877e-05
-3.98608e-28
-5.46072e-33
-4.29562e-22
-2.23924e-22
0.834938
-2.43581e-24
-4.29977e-25
6.13788e-24
0.211254
-1.74517e-35
-1.14873e-35
5.86757e-24
-3.79599e-24
-4.16682e-37
-7.2991e-37
9.1959e-36
8.5988e-24
4.08123e-22
1.57357e-21
2.38584e-21
2.42603e-21
5.7678e-21
1.42805e-20
1.25907e-20
-9.97434e-11
1.46659e-34
-6.73992e-34
0.627889
0.719856
0.393924
0.47777
0.233896
0.291737
0.122759
0.158754
0.0569961
0.0754523
0.0255251
0.0344389
0.0109338
0.0148712
0.00471447
0.00637444
0.00194901
0.00267713
0.000780991
0.00107634
0.000312353
0.000430969
0.000116968
0.000164077
4.25547e-05
5.97376e-05
1.57094e-05
2.21512e-05
5.43801e-06
7.78291e-06
1.87223e-06
2.66165e-06
6.47339e-07
9.20823e-07
2.14521e-07
3.08103e-07
7.01942e-08
1.00893e-07
2.32863e-08
3.35157e-08
7.37684e-09
1.07108e-08
2.36629e-09
3.40394e-09
7.51983e-10
1.09273e-09
2.33637e-10
3.37479e-10
7.40752e-11
1.06927e-10
2.18482e-11
3.23872e-11
6.2237e-12
9.10122e-12
1.93576e-12
2.81306e-12
5.68424e-13
8.35341e-13
1.65053e-13
2.41078e-13
4.83708e-14
7.10464e-14
1.34629e-14
1.99118e-14
3.77076e-15
5.52692e-15
1.08601e-15
1.58896e-15
3.01835e-16
4.4441e-16
8.51488e-17
1.24642e-16
2.34129e-17
3.45652e-17
6.24579e-18
9.22511e-18
1.71476e-18
2.52078e-18
4.65234e-19
6.88903e-19
1.28245e-19
1.87126e-19
4.058e-20
5.7875e-20
1.59664e-25
2.50506e-25
-4.38441e-25
1.14694e-20
1.82267e-20
1.54251e-20
4.55519e-23
6.122e-22
-1.24859e-07
-7.66787e-08
1.63311e-28
8.57796e-29
1.23629e-20
1.97274e-20
1.16173e-35
1.77556e-35
2.37728e-34
4.0728e-14
1.85631e-13
2.25288e-14
2.18821e-11
4.28431e-12
2.30801e-11
-3.07771e-24
-1.98733e-23
-1.06434e-24
-1.3325e-37
-7.82339e-35
-2.12382e-05
-1.09804e-05
-1.92459e-09
2.0552e-20
7.84886e-30
1.37269e-30
1.82972e-20
3.81247e-26
6.53257e-23
-2.18169e-19
1.39034e-20
1.81233e-33
-8.46773e-19
-2.42728e-37
1.83871e-12
1.90695e-20
1.24518e-27
6.44908e-12
7.68326e-31
-9.02462e-10
-1.39399e-19
-3.03072e-20
1.2265e-12
8.02029e-28
2.30232e-20
-9.86479e-09
5.53905e-27
2.3487e-15
4.03998e-16
-6.77258e-07
-4.41139e-07
1.37046e-29
2.03551e-29
0.890724
-1.43919e-29
0.658514
-6.03717e-28
-4.08206e-33
-6.37738e-33
-5.96544e-26
-4.83849e-27
-8.84482e-27
-9.67073e-26
0.685239
-7.35646e-25
8.69837e-21
0.826195
4.38399e-25
4.1748e-23
0.0236599
1.86558e-21
1.66637e-21
1.91147e-17
1.80601e-16
1.17763e-18
-2.03633e-30
2.11574e-29
9.10621e-24
-1.3761e-36
1.71431e-31
-3.30892e-30
6.37687e-23
7.35974e-05
7.23821e-06
-3.62003e-21
-2.04644e-21
0.000920531
0.000475281
6.29581e-28
4.20588e-28
7.06554e-25
0.794515
-1.74006e-29
-8.87668e-33
3.66078e-21
3.66368e-21
1.46664e-23
2.85329e-21
2.55649e-21
-1.73129e-32
-2.52825e-08
6.69888e-25
0.704286
0.721084
0.628278
0.731731
0.642408
0.733749
0.648604
0.732091
0.648355
0.735942
0.648975
0.734795
0.652111
0.732586
0.649892
0.734612
0.650834
0.733584
0.65226
0.732479
0.651364
0.734225
0.65146
0.732751
0.650848
0.730587
0.649664
0.731434
0.649044
0.731318
0.648846
0.73503
0.649202
0.733054
0.651208
0.731613
0.647478
0.732718
0.648656
0.733604
0.650085
0.733623
0.648963
0.738648
0.651546
0.73552
0.653673
0.732793
0.650262
0.734661
0.650897
0.733558
0.652231
0.732445
0.651227
0.734261
0.651088
0.733745
0.649986
0.735292
0.649184
0.7352
0.65099
0.733251
0.650217
0.736321
0.650853
0.733176
0.652488
0.725629
0.646406
0.724453
0.641278
0.724516
0.639238
0.733762
0.643814
0.754556
0.673966
0.544778
3.65121e-20
2.73715e-29
-1.59794e-26
3.95229e-31
-7.97317e-26
7.94919e-28
2.32728e-20
5.41173e-20
1.35765e-22
-1.01804e-28
9.55776e-13
3.74591e-19
2.71745e-34
3.79573e-20
2.09914e-22
-7.16331e-13
1.34269e-12
0.297509
3.76035e-33
1.67088e-33
-8.01304e-26
4.74362e-21
-1.16212e-24
-5.1536e-25
4.48205e-32
2.18056e-32
5.79987e-21
1.16152e-17
4.31238e-18
3.54738e-30
2.01535e-30
-1.47564e-32
-1.32855e-32
-2.83531e-32
1.8397e-20
0.00307249
0.01427
-8.53512e-37
1.18336e-35
9.70118e-35
1.47029e-37
-3.45846e-24
2.04549e-22
3.39839e-21
8.68023e-21
0.0555058
1.88622e-23
-6.0315e-24
-2.57475e-32
0.00524562
0.00947501
2.74278e-31
0.0456591
0.0282256
0.0873382
7.08959e-21
7.31024e-21
0.604585
0.461653
1.42162e-21
5.10207e-21
-4.51168e-28
1.74282e-27
0.440369
0.278929
0.347181
0.148559
0.194406
0.0676788
0.0918546
0.0304988
0.0415943
0.0136939
0.018702
0.00584455
0.00800872
0.0024295
0.00334896
0.000993552
0.00137277
0.000388024
0.000541751
0.000144703
0.000204262
5.34167e-05
7.55271e-05
1.9807e-05
2.80402e-05
7.03668e-06
1.01044e-05
2.39906e-06
3.46564e-06
8.14037e-07
1.17412e-06
2.76866e-07
3.98637e-07
9.18945e-08
1.33232e-07
2.98899e-08
4.34156e-08
9.76076e-09
1.42497e-08
3.07222e-09
4.50135e-09
9.75619e-10
1.42543e-09
3.07812e-10
4.50143e-10
9.65739e-11
1.42093e-10
2.92586e-11
4.32589e-11
8.52165e-12
1.26214e-11
2.5798e-12
3.80243e-12
7.64818e-13
1.12571e-12
2.23676e-13
3.29556e-13
6.4925e-14
9.59329e-14
1.84037e-14
2.74025e-14
5.14082e-15
7.66951e-15
1.44921e-15
2.1494e-15
4.15602e-16
6.1472e-16
1.19249e-16
1.77764e-16
3.24034e-17
4.82459e-17
9.11637e-18
1.35969e-17
2.47593e-18
3.71443e-18
6.74512e-19
1.01661e-18
1.96366e-19
3.01892e-19
6.31971e-20
-3.15129e-06
-8.63887e-06
-2.21061e-06
-1.37059e-07
-8.8401e-08
-1.88126e-33
-2.0571e-32
1.82668e-28
1.21089e-28
2.88622e-20
5.76069e-20
1.30678e-23
1.0808e-24
-8.0335e-22
2.10895e-21
-1.83305e-20
-1.88944e-26
5.18191e-14
4.20132e-35
4.3511e-20
3.51778e-20
2.21242e-31
0.00539338
0.00167552
4.38993e-31
1.04339e-19
2.96415e-20
1.26181e-20
6.64878e-23
2.95404e-23
0.117129
1.68342e-29
-9.89228e-20
-9.42339e-20
2.99651e-22
-4.64642e-11
-1.76385e-11
-1.6567e-26
-3.40249e-26
1.17262e-20
7.7592e-21
-1.69812e-24
-1.07616e-24
4.50974e-29
-5.82391e-07
-4.10286e-07
1.08746e-20
3.33303e-29
6.1648e-29
-1.37004e-28
-4.15032e-09
7.80912e-25
5.02951e-25
7.28444e-28
-1.23176e-27
-7.32041e-27
1.30482e-16
6.78689e-17
0.604545
0.672057
-9.84411e-37
-4.09286e-32
2.88891e-23
2.16477e-35
3.3549e-35
6.50281e-35
0.161642
2.73725e-20
-1.51835e-08
-7.15517e-32
2.70209e-13
8.35574e-13
1.91089e-13
0.52879
0.675202
-9.88272e-25
-1.4947e-24
-1.52726e-25
-1.8627e-27
-5.30718e-10
-2.41473e-09
-2.54034e-10
2.81327e-05
-4.94968e-30
-8.33735e-30
6.70332e-29
-1.14038e-23
-6.26993e-24
3.75884e-20
0.000243606
0.000882119
0.000133235
-5.16007e-21
-3.55166e-21
7.15804e-31
4.01711e-34
6.71669e-34
-2.74155e-33
3.28132e-14
8.04529e-15
1.99854e-23
5.79681e-20
1.16795e-27
7.52794e-28
0.536287
5.39809e-20
1.19406e-30
2.04399e-20
0.497628
0.501926
0.430366
0.501132
0.432256
0.502969
0.432953
0.502872
0.433637
0.503848
0.433438
0.505245
0.435664
0.50585
0.436054
0.507614
0.437481
0.50559
0.438266
0.505061
0.435587
0.505423
0.436425
0.505148
0.437013
0.503342
0.435417
0.503982
0.434294
0.503002
0.434662
0.501687
0.433263
0.503585
0.433903
0.503422
0.434615
0.503516
0.43452
0.503305
0.433448
0.503544
0.43307
0.504024
0.433753
0.505184
0.435661
0.505733
0.435943
0.507408
0.437346
0.505048
0.437975
0.503419
0.434661
0.502305
0.433659
0.502979
0.433841
0.504503
0.435065
0.506158
0.437062
0.504738
0.437288
0.501573
0.434987
0.496329
0.43153
0.490612
0.424019
0.491818
0.417288
0.524233
0.464788
0.426563
0.346252
0.765628
-1.07056e-07
1.39405e-22
8.50349e-20
4.56759e-20
5.24542e-31
2.51003e-20
-2.48319e-27
-1.01623e-22
-5.33674e-32
4.15617e-22
2.2412e-22
0.240031
4.58695e-30
-1.05126e-31
-1.81483e-31
1.8964e-30
3.02899e-17
5.56318e-20
1.29044e-19
-2.56014e-24
-1.37224e-11
-3.80648e-27
1.05846e-19
-2.8054e-20
-8.50757e-20
-2.00117e-20
9.8092e-33
1.18958e-05
-5.74882e-07
0.407346
7.83693e-32
4.56447e-32
0.465064
2.41502e-30
1.89702e-30
4.10446e-23
0.0652643
-1.52096e-26
-2.29808e-26
-2.69611e-26
-4.86093e-22
-5.72213e-23
0.184015
8.5895e-20
-5.45337e-22
-1.92853e-24
6.35061e-23
0.352941
0.488533
0.423886
0.40942
5.80738e-23
1.24452e-24
6.33996e-22
1.7133e-20
3.12289e-20
0.38462
0.353399
0.192024
1.36439e-20
3.75805e-20
1.08217e-15
4.82978e-15
5.99324e-16
1.0641e-20
2.62597e-20
-3.03227e-26
-1.571e-26
0.191327
0.0860846
0.119797
0.0398882
0.0543903
0.0180475
0.0245842
0.00760955
0.0104712
0.00319063
0.00443208
0.00126842
0.00177592
0.000497662
0.00069692
0.000190213
0.000270598
7.04556e-05
0.000100517
2.61312e-05
3.71881e-05
9.56994e-06
1.38225e-05
3.23302e-06
4.69752e-06
1.11916e-06
1.62408e-06
3.84319e-07
5.59388e-07
1.23846e-07
1.80894e-07
4.12482e-08
6.02896e-08
1.3645e-08
2.00579e-08
4.2741e-09
6.28994e-09
1.3992e-09
2.06713e-09
4.3478e-10
6.43692e-10
1.35868e-10
1.99406e-10
4.27798e-11
6.38478e-11
1.23315e-11
1.85834e-11
3.67833e-12
5.4438e-12
1.10331e-12
1.65651e-12
3.15467e-13
4.72779e-13
9.12283e-14
1.36431e-13
2.67823e-14
4.03552e-14
7.44083e-15
1.11779e-14
2.15538e-15
3.24337e-15
6.24496e-16
9.35583e-16
1.75546e-16
2.6209e-16
4.97309e-17
7.61517e-17
1.37448e-17
2.08101e-17
3.93738e-18
5.93731e-18
1.1593e-18
1.77304e-18
3.65583e-19
5.69964e-19
9.28688e-20
1.43522e-19
1.41757e-19
-4.35005e-32
-8.87088e-32
-1.61677e-28
-2.78952e-29
1.10173e-19
1.63344e-19
-7.46161e-26
8.92056e-23
4.81703e-21
1.62457e-20
3.15124e-14
3.55767e-31
-7.70998e-08
-2.66159e-08
-4.59225e-22
-1.16219e-22
8.46364e-20
1.27175e-21
8.49835e-22
1.66714e-17
3.29442e-18
1.7048e-19
-1.08753e-21
-1.53498e-21
-1.22254e-27
-1.90102e-23
-1.2101e-23
7.75429e-30
0.181852
5.46581e-33
1.0032e-33
3.82469e-25
-3.18793e-07
-2.73029e-07
-1.18802e-10
-6.44829e-11
-1.03861e-26
6.759e-05
9.80915e-20
-4.78117e-28
-5.71826e-27
1.53827e-19
1.42959e-19
-2.96087e-25
1.46202e-24
2.10749e-20
2.29128e-16
1.37469e-16
1.04894e-33
1.37404e-34
1.76093e-33
4.27075e-14
7.58741e-14
0.262424
9.12163e-29
-6.66957e-28
0.0427944
0.0134063
9.42962e-26
-3.47359e-24
2.28199e-19
-1.70849e-06
-2.26739e-06
-1.40259e-06
1.24165e-28
1.69696e-28
-1.12426e-29
-1.85784e-29
1.87076e-28
0.00039239
0.000221272
4.92053e-28
3.69059e-28
-6.50327e-12
-9.51157e-13
-7.08668e-33
-1.06215e-32
-6.85604e-32
-1.77196e-08
-5.19524e-09
7.18366e-21
-1.52845e-24
2.23411e-24
1.42667e-24
-1.58309e-25
-3.98633e-31
-1.46262e-24
0.320338
0.31917
0.265506
0.317602
0.263432
0.318905
0.262049
0.319289
0.263489
0.320469
0.263826
0.322243
0.265063
0.320525
0.265011
0.318225
0.262561
0.321276
0.263004
0.32143
0.266107
0.320623
0.265437
0.318806
0.264153
0.318307
0.262758
0.319436
0.262775
0.318728
0.26369
0.318035
0.262514
0.321084
0.263691
0.319631
0.26711
0.319527
0.264688
0.319944
0.26452
0.319428
0.264147
0.320347
0.263835
0.322088
0.26495
0.320283
0.264898
0.317414
0.262296
0.318583
0.262094
0.319315
0.263889
0.321551
0.264962
0.323102
0.267926
0.321744
0.267562
0.321741
0.266865
0.316703
0.265953
0.308157
0.259119
0.299196
0.24973
-1.66136e-31
5.38307e-20
-7.45089e-29
-6.52039e-27
-3.74195e-08
2.50924e-19
1.33976e-22
2.60585e-19
3.47031e-21
3.57575e-05
8.27536e-06
2.83968e-19
3.36815e-19
2.61169e-19
4.11219e-19
4.01899e-19
-6.60186e-30
-2.74257e-30
7.97642e-20
4.62871e-23
3.97089e-20
1.19074e-19
6.08306e-20
6.07021e-20
8.72866e-35
0.120362
-4.60975e-26
-2.85895e-26
0.0538988
0.0724404
0.0237853
0.032204
0.0100136
0.0138593
0.00410699
0.00569518
0.00168577
0.00235829
0.000656098
0.000926567
0.000254472
0.000359685
9.63675e-05
0.000138248
3.53001e-05
5.04726e-05
1.33716e-05
1.90525e-05
4.50411e-06
6.63113e-06
1.53507e-06
2.22754e-06
5.35385e-07
7.7899e-07
1.73137e-07
2.57079e-07
5.80483e-08
8.44304e-08
1.97736e-08
2.88345e-08
6.16433e-09
9.20016e-09
1.99969e-09
2.92829e-09
6.45282e-10
9.61605e-10
1.9331e-10
2.87362e-10
6.26074e-11
9.18779e-11
1.85925e-11
2.82162e-11
5.29148e-12
7.92967e-12
1.61003e-12
2.38805e-12
4.76264e-13
7.20572e-13
1.34825e-13
2.01214e-13
4.12073e-14
6.13312e-14
1.14504e-14
1.74973e-14
3.27215e-15
4.89306e-15
9.54705e-16
1.44004e-15
2.61992e-16
3.94031e-16
7.66368e-17
1.13044e-16
2.18224e-17
3.29178e-17
6.322e-18
9.45641e-18
2.10584e-18
3.14457e-18
7.74857e-19
5.55418e-19
1.26064e-18
-3.18543e-24
3.342e-26
-8.46798e-10
-3.19568e-09
-4.92002e-10
-8.2122e-28
-3.96543e-28
3.03773e-19
4.39513e-19
1.89133e-22
6.70006e-23
0.00231899
0.00125699
3.39877e-20
8.12172e-20
1.77716e-19
3.95134e-19
2.45993e-14
8.13611e-15
5.14885e-22
4.99593e-21
1.38473e-34
6.33796e-34
2.11214e-34
0.254157
-7.95748e-23
0.312813
-4.54174e-31
-2.50893e-31
0.300498
0.264765
0.317421
1.75996e-18
3.04588e-19
2.63661e-19
-4.8682e-24
0.157915
1.15426e-20
-3.64435e-29
-3.06649e-14
-2.33395e-24
-3.83597e-24
9.22366e-20
0.238487
0.260352
6.22818e-21
1.03274e-21
0.000121817
4.20653e-24
-3.66042e-26
1.6462e-07
1.15294e-08
-1.66577e-10
-4.61109e-27
2.27714e-28
2.08321e-21
1.33194e-21
4.80355e-33
0.00783032
-1.1569e-26
-5.67897e-27
2.09651e-24
-6.18834e-24
-2.93568e-25
-9.63776e-32
3.7802e-34
3.28448e-19
2.14947e-33
1.99529e-16
-2.50767e-13
0.300271
0.251791
0.22406
-3.75733e-13
-1.80744e-13
-1.08641e-24
0.127339
0.12417
0.0534542
1.45527e-15
9.34866e-16
-4.79573e-26
-2.0338e-25
-1.99954e-27
-2.8586e-27
-1.72763e-26
-2.48261e-24
2.03002e-22
-3.94529e-27
-3.79507e-08
-1.81439e-08
-2.23107e-29
2.75767e-08
-4.26853e-07
2.88532e-22
1.78628e-20
3.8226e-21
4.96184e-19
-7.12616e-26
-4.66658e-26
0.000568293
0.000362158
1.59135e-20
-1.50715e-31
-2.75444e-31
1.36079e-16
3.70997e-17
-2.78254e-32
-4.27757e-32
-2.3526e-31
7.93239e-22
9.82318e-26
6.50174e-24
-9.96642e-11
-2.6354e-11
2.34794e-20
1.7904e-32
4.67916e-19
5.06007e-20
1.69249e-19
6.64144e-23
5.07664e-22
1.8161e-23
0.187494
-1.5948e-23
-1.04733e-23
0.186347
0.152614
0.185406
0.151614
0.186124
0.151263
0.186881
0.15214
0.187375
0.15221
0.185894
0.151938
0.184997
0.150774
0.18682
0.151202
0.187711
0.152637
0.187859
0.152766
0.186834
0.152802
0.185941
0.152181
0.186126
0.151268
0.186527
0.151896
0.186325
0.152723
0.188213
0.152617
0.18954
0.15322
0.186202
0.152908
0.186618
0.150484
0.186801
0.15216
0.18696
0.152553
0.187259
0.152237
0.185843
0.151875
0.184856
0.150781
0.186343
0.151121
0.186897
0.152312
0.187358
0.152036
0.190143
0.153122
0.188797
0.155139
0.189104
0.153844
0.18681
0.154189
0.180565
0.150512
0.172547
0.134665
0.144702
-2.23047e-26
1.0475e-19
0.184708
-1.25276e-28
2.55486e-19
3.02334e-06
-3.78423e-29
-2.29747e-25
-1.4938e-25
3.68469e-30
-2.4662e-31
2.10234e-26
-4.60035e-26
1.48025e-24
-6.24609e-24
-1.23764e-23
6.85992e-33
4.27215e-21
5.05511e-20
1.58042e-19
8.47891e-19
5.5963e-30
-2.0602e-30
-1.056e-30
4.08008e-33
-3.57148e-12
-1.52225e-11
-1.90837e-12
-1.00848e-27
-5.7495e-28
-7.93833e-26
1.14363e-19
3.86944e-19
9.33282e-19
1.30606e-18
0.0642035
0.0861068
6.01679e-28
3.81838e-28
0.029564
0.0396093
0.0128358
0.0175306
0.00546656
0.00751887
0.00223528
0.00308473
0.000894744
0.00124799
0.000350101
0.000493589
0.000133261
0.000187894
5.07694e-05
7.22235e-05
1.83351e-05
2.60534e-05
6.31077e-06
9.10733e-06
2.20627e-06
3.20374e-06
7.53418e-07
1.08679e-06
2.55541e-07
3.73236e-07
8.46237e-08
1.24462e-07
2.79092e-08
4.07009e-08
9.09297e-09
1.33749e-08
2.98732e-09
4.40547e-09
9.5925e-10
1.40794e-09
2.94943e-10
4.40741e-10
9.1614e-11
1.35451e-10
2.75494e-11
4.08548e-11
8.27942e-12
1.24887e-11
2.39569e-12
3.59182e-12
7.16758e-13
1.06094e-12
2.11272e-13
3.19594e-13
6.11438e-14
9.11571e-14
1.78184e-14
2.66421e-14
5.22479e-15
7.91882e-15
1.48295e-15
2.21758e-15
4.19487e-16
6.36987e-16
1.18482e-16
1.80245e-16
3.38322e-17
5.0531e-17
1.01514e-17
1.50591e-17
3.47228e-18
4.88016e-18
1.56948e-24
5.96425e-25
2.83084e-22
6.46096e-21
0.00251329
0.00154501
1.58264e-19
2.61837e-19
7.76557e-19
1.43109e-18
5.57139e-15
1.28501e-20
7.6304e-20
0.187926
0.151019
-2.42631e-29
1.85746e-24
-3.31107e-23
-6.8745e-13
-4.85222e-31
5.25982e-18
2.42002e-19
1.17146e-23
-5.05957e-23
0.153313
1.79367e-18
1.45727e-19
2.2342e-23
1.069e-23
7.39087e-05
-1.34215e-25
-2.25445e-25
8.29483e-26
5.72199e-20
-5.95382e-10
-1.18046e-14
9.88292e-20
-5.91077e-27
2.08849e-05
4.10875e-22
-1.37243e-23
-4.499e-25
-1.18726e-31
-1.81052e-10
-2.12731e-26
-1.68346e-29
0.148109
0.179186
5.42851e-19
0.0820036
7.15856e-19
8.85995e-19
4.48452e-28
3.4727e-21
1.96612e-21
1.28291e-18
7.93826e-19
1.14832e-29
1.73768e-29
-4.33797e-29
0.0120538
1.18747e-18