/*--------------------------------*- C++ -*----------------------------------*\
  =========                 |
  \\      /  F ield         | OpenFOAM: The Open Source CFD Toolbox
   \\    /   O peration     | Website:  https://openfoam.org
    \\  /    A nd           | Version:  7
     \\/     M anipulation  |
\*---------------------------------------------------------------------------*/
FoamFile
{
    version     2.0;
    format      ascii;
    class       volScalarField;
    location    "0.74";
    object      T;
}
// * * * * * * * * * * * * * * * * * * * * * * * * * * * * * * * * * * * * * //

dimensions      [0 0 0 1 0 0 0];

internalField   nonuniform List<scalar> 
45544
(
0
0
0
0
0
0
0
0
0
0
0
0
0
0
0
0
0
0
0
0
0
0
0
0
0
0
0
0
0
0
0
0
0
0
0
0
0
0
0
0
0
0
0
0
0
0
0
0
0
0
0
0
0
0
0
0
0
0
0
0
0
0
0
0
0
0
0
0
0
0
0
0
0
0
0
0
0
0
0
0
0
0
0
0
0
0
0
0
0
0
0
0
0
0
0
0
0
0
0
0
0
0
0
0
0
0
0
0
0
0
0
0
0
0
0
0
0
0
0
0
0
0
0
0
0
0
0
0
0
0
0
0
0
0
0
0
0
0
0
0
0
0
0
0
0
0
0
0
0
0
0
0
0
0
0
0
0
0
0
0
0
0
0
0
0
0
0
0
0
0
0
0
0
0
0
0
0
0
0
0
0
0
0
0
0
0
0
0
0
0
0
0
0
0
0
0
0
0
0
0
0
0
4.78776e-45
1.20508e-35
-1.25908e-31
4.83376e-30
2.44373e-27
-4.57862e-26
6.82797e-25
-1.62553e-23
-1.85183e-23
-9.00521e-24
5.57363e-24
-3.51822e-24
-4.67933e-24
-2.38535e-24
5.23049e-24
4.55763e-24
9.32087e-24
1.94504e-23
-2.0818e-22
1.10863e-21
1.36296e-21
5.44239e-21
9.30483e-21
3.35105e-21
1.82481e-20
4.20954e-20
3.95411e-20
2.42613e-20
1.2641e-20
5.97858e-21
4.0238e-21
-2.85593e-20
-5.34783e-20
-4.55321e-20
-4.09241e-20
-3.62533e-20
-2.88116e-20
-8.54353e-21
1.1913e-20
-4.03846e-20
-3.88202e-20
5.50126e-20
7.82304e-21
-3.6905e-20
-1.14989e-19
-1.68519e-19
6.94418e-20
2.71835e-19
4.24943e-19
3.44047e-19
6.5083e-19
5.06062e-19
4.83312e-19
2.11382e-19
-3.6633e-20
-4.17123e-19
-5.70022e-19
-4.23844e-19
-4.49928e-19
-3.93691e-19
-2.3801e-19
-1.11581e-19
1.49819e-20
8.25945e-20
1.16679e-19
8.69629e-20
9.04366e-20
5.99138e-20
4.47824e-20
2.62353e-20
1.08476e-20
2.53361e-21
-2.27398e-21
-5.33513e-21
-5.55262e-21
-5.74976e-21
-4.99787e-21
-3.70626e-21
-1.77664e-21
-1.41178e-21
-8.17968e-22
-3.52736e-22
-1.80037e-22
-7.10933e-24
4.3969e-23
6.06995e-23
6.95272e-23
6.48723e-23
4.18371e-23
3.64536e-23
2.65715e-23
2.09443e-23
1.35268e-23
7.32224e-24
8.35173e-24
1.31912e-22
-1.47361e-19
0
0
0
0
0
0
0
0
0
0
0
0
0
0
0
0
0
0
0
0
0
0
0
0
0
0
0
0
0
0
0
0
0
0
0
0
0
0
0
0
0
0
0
0
0
0
0
0
-1.56998e-114
8.99889e-120
-5.83857e-111
-7.14531e-111
-4.73102e-110
-6.19109e-110
2.09152e-107
1.36856e-107
3.49989e-104
4.31558e-104
5.00684e-104
6.39929e-104
5.88002e-103
-2.51971e-102
-3.0104e-102
-5.45335e-103
2.05141e-99
-1.18319e-99
2.44831e-97
-1.17788e-97
1.06592e-95
-3.45658e-96
6.14351e-95
4.8121e-95
5.00601e-95
2.93441e-95
4.60769e-94
-1.40145e-93
3.8063e-93
1.23151e-93
4.81742e-93
4.09166e-93
6.85981e-93
4.73217e-93
1.19484e-92
-1.44515e-92
1.54669e-92
6.28585e-92
-4.21067e-91
1.29738e-90
-3.74124e-90
1.07042e-90
-4.58095e-90
-1.20412e-90
-3.22431e-90
-2.21785e-90
-2.21648e-90
-1.18887e-90
-1.80174e-89
-7.24491e-89
-1.26257e-89
-9.09453e-89
8.876e-89
-3.17186e-88
1.67345e-88
-5.13667e-88
2.51489e-88
-4.22239e-88
1.8473e-87
-5.06712e-88
8.09959e-87
-3.7966e-86
-3.53881e-85
-2.52825e-85
-1.82045e-84
-1.37809e-84
-6.02165e-85
-3.61252e-84
-6.46074e-83
1.84053e-83
-3.39743e-81
-3.21743e-81
-1.61179e-81
-5.0201e-81
-1.52756e-81
-6.6767e-81
2.55616e-80
-9.51882e-80
1.73452e-79
-2.75003e-79
-9.19772e-80
1.7601e-78
-1.06739e-78
6.68194e-78
-4.47895e-77
6.21699e-77
-1.3588e-76
-3.23861e-77
-9.52407e-77
9.62278e-78
-2.10375e-76
4.18174e-76
-4.07455e-76
2.86165e-76
-6.13865e-76
5.71603e-76
-9.57055e-76
9.31624e-76
-3.67494e-75
5.156e-75
-2.06111e-74
-2.20042e-74
-7.81737e-75
-3.83216e-74
1.01109e-74
-5.93922e-74
4.91149e-74
-5.05543e-74
6.0989e-74
-1.0685e-73
2.87745e-73
-5.384e-73
1.19242e-72
1.85795e-72
5.35594e-73
2.79992e-72
-2.02767e-72
6.69903e-72
-6.19471e-72
8.78683e-72
-7.4376e-72
-3.4211e-73
-5.0506e-72
-7.14076e-72
-2.5755e-73
-9.08935e-72
-6.69653e-72
-2.87396e-71
2.00943e-71
-7.49603e-71
2.89566e-71
-5.79794e-71
5.36168e-71
-9.56554e-71
4.62135e-71
-2.19784e-71
4.8954e-71
-2.56574e-71
1.02994e-70
2.01012e-71
3.13553e-70
2.72781e-70
4.06685e-70
4.11158e-70
3.24583e-70
1.89686e-70
1.8238e-70
4.17499e-70
3.17408e-70
4.87976e-70
4.35066e-70
1.83111e-69
-2.76237e-70
2.5666e-69
-1.3619e-69
3.3516e-69
-2.07942e-69
5.36775e-69
-4.07514e-69
8.56576e-69
-5.54346e-69
6.58286e-69
-4.19915e-69
2.12632e-69
-5.20186e-69
7.41506e-69
-1.05902e-68
1.90806e-68
-1.26585e-68
1.89125e-68
-1.35931e-68
1.89672e-68
-1.43453e-68
1.87132e-68
-2.43709e-68
2.58638e-68
-2.91082e-68
1.05129e-68
-2.49356e-68
2.00634e-68
-3.049e-68
3.18399e-68
-3.80704e-68
3.42643e-68
-3.95541e-68
3.26819e-68
-4.48241e-68
5.52207e-68
-5.32805e-68
6.33106e-68
-6.41641e-68
9.16537e-68
-8.61783e-68
1.05786e-67
-8.19038e-68
4.98643e-68
-7.16834e-68
1.61406e-68
-6.22998e-68
9.2818e-69
-5.27618e-68
4.27081e-69
-5.51671e-68
-9.42633e-69
-3.5143e-68
-5.16827e-71
-2.77256e-68
-6.76451e-69
-5.22916e-69
5.0182e-69
4.37187e-69
3.41293e-68
1.31043e-68
3.2198e-68
1.61046e-68
-1.7783e-68
2.42598e-68
2.0745e-68
3.56251e-68
-6.27281e-68
5.27547e-68
2.31261e-68
4.72108e-68
6.23169e-68
2.77845e-68
4.11443e-68
2.74928e-68
6.15596e-68
2.92436e-68
7.7245e-68
4.10891e-68
-5.68657e-68
1.18639e-67
7.87466e-68
9.99503e-68
7.89801e-69
7.80509e-68
1.44898e-68
1.497e-67
-4.36746e-68
2.20109e-67
1.06281e-67
1.54994e-67
6.53122e-68
1.36731e-67
-1.01129e-68
1.39228e-67
2.47916e-68
1.43232e-67
3.74038e-69
1.53539e-67
-2.07882e-68
1.4344e-67
-5.37184e-68
1.17998e-67
-2.81943e-68
1.05411e-67
-3.73796e-68
9.23359e-68
-2.18268e-68
1.08667e-67
-3.64027e-69
8.65094e-68
1.68219e-69
9.65509e-68
-2.51163e-68
1.01033e-67
6.38587e-69
7.90097e-68
-1.12622e-68
7.13039e-68
-1.94352e-68
6.52611e-68
-1.8949e-68
5.57438e-68
-1.57195e-68
4.75943e-68
-1.62277e-68
4.30824e-68
-4.67736e-69
3.1641e-68
-4.81209e-69
2.54341e-68
-4.61369e-69
1.89632e-68
-5.02453e-69
1.33373e-68
-6.51932e-69
1.1381e-68
-3.75117e-69
8.8447e-69
-1.403e-69
-5.51738e-70
-6.10313e-69
3.80195e-70
-4.82912e-69
-7.08421e-70
1.61887e-69
-2.78769e-69
8.82505e-70
-3.38856e-69
-8.72787e-70
-3.14564e-69
-3.80992e-70
-3.32516e-69
2.7799e-70
-4.36823e-69
-2.4914e-69
-3.52161e-69
-7.46174e-70
3.35086e-68
-3.97755e-69
-1.50369e-66
-1.42318e-66
-1.75344e-65
6.02682e-65
1.89204e-63
4.61584e-64
-7.05073e-61
-6.04384e-61
2.21333e-59
2.04631e-59
-9.69322e-57
-8.59182e-58
3.24559e-55
3.00188e-55
-2.17063e-54
-7.47215e-54
5.92743e-54
7.14904e-53
-1.41424e-53
-1.22702e-53
1.20021e-52
9.59862e-53
-1.8439e-49
-1.69703e-51
1.01681e-47
4.02138e-48
1.93692e-46
-1.71686e-46
-4.78451e-45
-4.14153e-45
-2.16759e-45
4.68544e-44
-9.3763e-45
-1.09028e-43
2.66895e-42
2.21636e-43
-3.48772e-41
1.65385e-18
-1.11806e-17
3.53441e-17
8.13911e-16
2.50346e-13
-3.66572e-12
2.81179e-11
1.7763e-09
1.18978e-08
3.66136e-08
6.5953e-08
8.60471e-08
9.25205e-08
9.33129e-08
9.29581e-08
9.22004e-08
9.07028e-08
8.49843e-08
7.14977e-08
5.16185e-08
3.14354e-08
1.61205e-08
6.76974e-09
2.39966e-09
6.59842e-10
1.37036e-10
2.10818e-11
1.14242e-12
-3.83207e-13
-9.2788e-14
-4.81085e-16
1.20474e-15
-3.46053e-17
-8.21883e-18
9.29275e-19
-2.86659e-20
-1.22873e-21
2.10984e-22
-1.47021e-23
7.48185e-25
-3.26254e-26
1.19104e-27
-3.73248e-29
6.95402e-31
1.24281e-32
-9.68139e-34
1.56796e-35
2.87463e-37
-6.15147e-39
-2.18175e-10
2.11446e-10
1.22016e-12
-9.40457e-11
1.22844e-10
-8.53771e-11
-2.07195e-10
2.3718e-10
1.08703e-10
1.73754e-10
2.21596e-10
3.41694e-11
1.41397e-10
-3.00734e-10
-8.18988e-11
-1.66604e-10
-2.67548e-10
6.33747e-11
2.94666e-11
-1.05938e-10
-1.14878e-10
-4.41718e-10
-1.84912e-10
-1.00836e-09
-5.07847e-10
-7.81845e-10
-3.4152e-10
1.71742e-09
-1.97933e-10
1.31522e-09
7.5694e-10
2.34465e-10
2.01478e-09
-9.34199e-10
3.92854e-10
-6.50534e-09
-4.78044e-09
-6.73696e-09
-6.97081e-09
-2.47152e-09
-3.9995e-09
-6.00767e-09
1.33324e-08
1.34973e-08
-2.23514e-09
1.47525e-08
-3.90996e-08
-3.58243e-08
9.83314e-09
-2.36594e-08
4.02848e-08
5.98995e-08
-3.04018e-08
1.10564e-08
-4.01176e-08
-7.26844e-08
4.89509e-08
1.55844e-08
1.57406e-08
6.36087e-08
-5.63315e-08
-4.50178e-08
1.82185e-08
-2.51467e-08
1.26541e-08
3.44237e-08
-1.17029e-08
-8.49265e-09
2.38918e-09
-1.4197e-09
-4.641e-09
2.30209e-09
-4.70991e-09
-3.55534e-09
-3.44673e-09
-4.00244e-09
-2.08342e-09
-2.90841e-09
4.63743e-11
-8.70675e-11
1.05982e-11
-2.30841e-10
-8.48702e-11
-1.54791e-11
-6.02019e-10
8.57848e-10
-1.07851e-09
-3.23068e-09
2.08255e-11
-9.68012e-12
3.8825e-12
-4.63694e-12
-1.07704e-11
2.88838e-11
2.50964e-12
-1.00602e-10
9.28199e-11
-4.60852e-11
-4.18149e-20
0
0
0
7.40181e-39
6.7398e-33
-1.48893e-30
5.8277e-28
5.83517e-27
1.65991e-26
2.70191e-24
2.53782e-23
6.49511e-24
-3.27046e-24
-1.98744e-23
-8.6967e-24
-1.01239e-23
-2.65777e-24
-1.38014e-24
4.09648e-24
1.15261e-23
3.9081e-23
-2.45908e-23
-8.98916e-22
-2.57224e-21
-6.59853e-21
1.09132e-21
-2.28653e-22
-1.58324e-20
-8.03294e-22
1.54096e-20
1.09169e-20
-1.97269e-21
-2.28223e-20
-2.88147e-20
-1.00745e-20
-2.43139e-20
-3.75278e-20
-6.25062e-20
-3.68702e-20
3.72317e-21
-4.25903e-20
7.65344e-21
6.04804e-20
-1.34512e-20
-3.81607e-20
-1.42039e-19
-1.26349e-19
-3.03447e-19
-2.41058e-19
-6.99662e-20
1.17105e-19
6.53168e-19
4.88831e-19
8.056e-19
4.12147e-19
4.19364e-19
-8.09112e-21
-2.80136e-19
-4.02971e-19
-6.26874e-19
-4.27484e-19
-4.64679e-19
-3.1978e-19
-1.67238e-19
-2.44411e-20
5.96405e-20
8.76016e-20
1.40542e-19
8.63495e-20
9.86418e-20
4.65584e-20
3.95106e-20
2.08409e-20
7.83257e-21
1.03638e-21
-4.82712e-21
-4.80092e-21
-5.62902e-21
-5.17817e-21
-3.89212e-21
-3.42123e-21
-1.68498e-21
-9.68952e-22
-6.71867e-22
-3.09206e-22
-1.18116e-22
1.56552e-23
4.71974e-23
7.6715e-23
7.32164e-23
5.68208e-23
4.03675e-23
2.9597e-23
2.38581e-23
1.61026e-23
8.85367e-24
5.94438e-24
-1.23835e-23
0
7.35263e-21
0
2.23042e-18
-6.55839e-18
-4.39686e-41
-1.36034e-17
3.01673e-17
1.08532e-15
9.24282e-15
4.46812e-13
-1.30825e-11
3.64512e-10
5.32497e-09
2.22926e-08
5.14188e-08
7.77788e-08
9.03541e-08
9.32872e-08
9.32022e-08
9.25272e-08
9.17712e-08
8.85465e-08
7.93251e-08
6.18957e-08
4.12947e-08
2.30822e-08
1.08343e-08
4.17012e-09
1.30247e-09
3.14947e-10
5.70242e-11
6.43959e-12
-2.40984e-13
-2.26382e-13
-2.50165e-14
2.52258e-15
2.31483e-16
-3.64828e-17
6.35392e-19
1.83838e-19
-1.99408e-20
1.046e-21
-3.68665e-23
1.04955e-24
-2.14536e-26
8.20244e-28
-8.44417e-29
5.59753e-30
-2.44185e-31
4.7044e-33
2.65642e-35
-3.4307e-36
1.19854e-38
1.02751e-11
8.18322e-40
-6.87093e-09
-3.94441e-09
2.61358e-09
-8.16351e-12
6.04072e-11
7.01121e-11
8.98482e-11
4.11999e-10
-3.45749e-10
2.58137e-10
2.11103e-09
-1.09566e-09
5.96969e-11
-1.71323e-09
7.44217e-11
-5.69806e-11
2.18137e-11
-6.05193e-12
-4.19645e-12
-5.90889e-11
9.66713e-11
-1.04154e-10
5.6101e-11
-3.59861e-11
0
0
-1.57822e-41
-7.45649e-34
1.96702e-30
-2.14461e-28
-1.55737e-26
2.08202e-25
-4.57894e-24
2.96873e-23
1.32762e-23
-1.64971e-23
-3.9927e-23
-2.2504e-23
-2.91313e-23
-1.96238e-23
-3.8997e-23
-3.79646e-23
-2.55179e-23
-8.71122e-23
1.06445e-21
-5.74271e-21
-2.05909e-21
-1.11802e-20
-5.93692e-21
1.45676e-21
-8.12568e-20
-9.75382e-20
-2.54197e-20
3.84378e-20
2.30089e-20
1.64333e-20
5.32026e-20
1.04363e-19
8.98348e-20
8.72937e-20
1.22867e-19
1.33726e-20
8.87124e-20
2.5043e-20
5.67012e-20
1.55894e-19
4.26352e-20
2.0941e-19
2.99185e-19
3.03772e-19
-1.1523e-19
-4.89752e-19
-1.05428e-18
-1.52062e-18
-7.01591e-19
-1.19389e-18
-5.27454e-19
-1.6563e-19
6.84653e-19
8.05906e-19
1.12004e-18
1.08797e-18
4.14538e-19
4.25925e-19
1.28781e-19
-6.3106e-20
-1.06306e-19
-2.02808e-19
-2.12193e-19
-1.9936e-19
-6.25588e-20
-9.51373e-20
-3.4146e-20
-2.58085e-20
9.63441e-21
8.80421e-21
9.99658e-21
1.03908e-20
7.41636e-21
7.68442e-21
3.44718e-21
1.85015e-21
1.7171e-21
-4.53118e-22
7.01885e-22
4.69411e-22
-1.68526e-22
2.06649e-23
-1.01862e-22
-4.88283e-23
-5.85501e-23
-4.43996e-23
-3.13291e-23
-2.14312e-23
-9.03241e-24
-1.15061e-23
5.5958e-25
-1.96598e-24
-1.78785e-24
2.56007e-24
2.4305e-23
-2.34896e-21
1.40565e-16
-1.04509e-17
5.09321e-13
-9.022e-12
1.04641e-10
3.35555e-09
1.84401e-08
5.00402e-08
8.24252e-08
1.00776e-07
1.05547e-07
1.05955e-07
1.05188e-07
1.04605e-07
1.02039e-07
9.39329e-08
7.60171e-08
5.26036e-08
3.05564e-08
1.49326e-08
5.945e-09
1.96818e-09
4.96136e-10
9.40872e-11
1.21765e-11
1.28943e-14
-3.49658e-13
-5.16237e-14
3.16561e-15
5.67152e-16
-5.8666e-17
-5.86564e-19
4.52695e-19
-3.6691e-20
1.60664e-21
-3.56593e-23
3.97328e-26
5.03266e-26
-1.91816e-27
-5.12115e-29
8.41367e-30
-4.73163e-31
1.20778e-32
-6.33125e-36
-7.03678e-36
4.91566e-38
2.41233e-39
-1.11971e-10
-1.44658e-13
9.64744e-11
-7.77192e-11
2.40516e-10
-1.58228e-10
-8.26599e-10
6.87264e-10
5.75674e-10
-3.47489e-09
4.47571e-11
-2.04633e-11
2.20476e-11
2.32527e-12
5.22286e-12
4.36563e-11
3.80534e-12
-3.45738e-11
4.17467e-11
-2.01557e-11
0
0
-1.25342e-36
-1.20448e-31
7.53208e-30
-7.2958e-27
-1.66931e-26
-2.39471e-25
-3.44272e-24
-4.80943e-23
-2.94132e-23
-1.60979e-23
-1.25932e-23
-2.43744e-23
-1.54299e-23
-1.8945e-23
-2.22003e-23
-1.41509e-23
-2.05811e-23
-3.73027e-23
-1.97944e-21
4.11133e-21
5.59493e-21
2.2739e-20
-1.70334e-21
3.36298e-20
1.11025e-19
1.29664e-19
7.88299e-20
4.81312e-20
8.51394e-20
6.9937e-20
2.39111e-20
1.89435e-20
3.01438e-20
5.93583e-21
-1.01087e-19
-1.44781e-19
-2.06296e-19
7.08644e-20
1.18251e-20
5.77302e-20
3.91113e-19
2.95885e-19
4.42985e-19
1.61672e-19
1.04032e-19
-5.62392e-19
-1.09457e-18
-1.09762e-18
-1.25077e-18
-6.18332e-19
-2.51836e-19
4.58246e-19
4.52366e-19
9.89484e-19
8.6462e-19
5.21933e-19
3.94119e-19
2.48704e-19
-8.27199e-20
-1.53125e-19
-2.22646e-19
-1.81101e-19
-2.12025e-19
-1.31281e-19
-1.01876e-19
-7.30084e-20
-1.89245e-20
-1.54164e-20
2.67085e-21
4.06933e-21
9.76292e-21
9.86461e-21
6.92475e-21
3.47299e-21
1.30555e-21
1.65493e-21
5.03077e-22
8.74934e-22
1.79529e-22
-4.87199e-23
8.01451e-23
-1.01006e-22
-8.66174e-24
-4.43712e-23
-6.20605e-23
-3.33689e-23
-1.88702e-23
-1.05161e-23
-1.06374e-23
1.61472e-26
2.83281e-25
2.37593e-25
1.32318e-24
1.27205e-23
3.14718e-22
1.85697e-13
-1.5907e-11
8.18512e-10
8.91666e-09
3.26418e-08
6.71763e-08
9.40919e-08
1.04219e-07
1.06385e-07
1.05466e-07
1.04878e-07
1.03622e-07
9.87487e-08
8.61842e-08
6.4578e-08
4.08571e-08
2.18987e-08
9.57887e-09
3.52054e-09
1.01306e-09
2.2321e-10
3.68412e-11
2.854e-12
-4.93987e-13
-1.62048e-13
-5.58612e-15
2.12659e-15
-9.66812e-19
-1.87824e-17
1.50656e-18
-1.44178e-20
-5.02103e-21
5.11686e-22
-3.19046e-23
1.54212e-24
-6.71671e-26
2.56516e-27
-8.66374e-29
1.97934e-30
8.13056e-33
-1.89197e-33
3.95489e-35
4.60936e-37
-1.76611e-38
-1.42029e-40
-8.93556e-11
1.87323e-11
-1.23478e-10
-5.63911e-11
1.31783e-10
-2.32168e-10
4.92171e-10
1.44801e-09
-4.66482e-09
1.78934e-09
-2.46923e-11
3.1266e-11
3.12634e-12
1.26368e-11
3.07957e-13
-3.54707e-11
8.46808e-11
-5.17361e-11
3.21855e-11
-2.02195e-11
0
-1.12383e-17
3.67524e-14
2.08752e-15
7.56258e-17
5.02404e-11
0
0
0
0
0
0
0
0
0
0
0
0
0
0
0
0
0
0
0
0
0
0
0
0
0
0
0
0
0
0
0
0
0
0
0
0
0
0
0
0
0
0
0
0
0
0
0
0
0
0
0
0
0
0
0
0
0
0
0
0
0
0
0
0
0
0
0
0
0
0
0
0
0
0
0
0
0
0
0
0
0
0
0
0
0
0
0
0
0
0
0
0
0
0
0
0
0
0
0
0
0
0
0
0
0
0
0
0
0
0
0
0
0
0
0
0
0
0
0
0
0
0
0
0
0
0
0
0
0
0
0
0
0
0
0
0
0
0
0
0
0
0
0
0
0
0
0
0
0
0
0
0
0
0
0
0
0
0
0
0
0
0
0
0
0
0
0
0
0
0
0
0
0
0
0
0
0
0
0
0
0
0
0
0
0
0
0
0
0
0
0
0
0
0
0
0
-1.36774e-17
-1.48838e-17
-3.33407e-17
2.25821e-16
-5.03708e-40
-4.30028e-32
3.42946e-29
-9.12477e-27
1.31032e-27
2.32088e-24
-3.67193e-23
1.44427e-22
8.27108e-23
-5.40514e-23
-1.46082e-22
-7.42158e-23
-1.36073e-22
-1.16842e-22
-2.24922e-22
-2.68638e-22
-2.32385e-22
-8.2458e-22
7.9953e-21
-2.20719e-20
-2.03694e-20
-5.99769e-20
-2.62477e-20
-7.20374e-20
-6.91006e-19
-8.49296e-19
-4.90375e-19
2.33567e-20
-2.33048e-20
1.99055e-20
5.19331e-19
8.5239e-19
7.70281e-19
8.4549e-19
1.72708e-18
8.49174e-19
1.08361e-18
7.10936e-19
4.55596e-19
1.99498e-19
-9.05125e-19
8.68935e-19
2.23077e-18
4.24976e-18
5.60386e-18
4.78654e-18
2.80639e-18
-3.65449e-18
-5.75778e-18
-1.29706e-17
-1.61183e-17
-1.49717e-17
-1.02692e-17
-5.24985e-18
1.44964e-18
6.20988e-18
6.77105e-18
8.17632e-18
9.16699e-18
7.26799e-18
5.45139e-18
2.21188e-18
5.90267e-19
-5.34466e-19
-9.87376e-19
-1.41854e-18
-1.42714e-18
-1.05895e-18
-6.9574e-19
-5.3217e-19
-3.58959e-19
-1.93486e-19
-4.69356e-20
2.12014e-20
4.88556e-20
5.50696e-20
5.59539e-20
3.91775e-20
3.83969e-20
2.81911e-20
1.55184e-20
1.2888e-20
6.472e-21
4.03204e-21
2.31587e-21
3.62622e-22
-7.63711e-23
-3.71191e-22
-4.13332e-22
-4.1098e-22
-3.01734e-22
-2.61545e-22
-1.7972e-22
-9.39746e-23
5.86321e-22
-4.91616e-20
5.57257e-14
0
-7.87698e-20
0
0
0
0
0
0
0
0
0
0
0
0
0
0
0
0
0
0
0
0
0
0
0
0
0
0
0
0
0
0
0
0
0
0
0
0
0
0
0
0
0
0
0
0
0
0
-2.07564e-119
0
-1.7341e-111
-1.91793e-111
-8.67335e-109
-1.07259e-108
-1.77496e-107
3.67268e-107
1.83685e-105
7.70014e-106
3.05194e-102
3.78309e-102
8.4339e-102
5.15433e-102
-3.77697e-100
-1.02868e-99
-2.64784e-100
-2.87603e-100
1.63577e-97
1.88479e-98
2.96214e-95
-2.47668e-96
8.74597e-94
1.55221e-94
2.94084e-93
-1.9579e-93
7.50772e-93
-3.24056e-93
2.10079e-91
6.35839e-92
4.45256e-91
2.94506e-91
3.30536e-91
1.94807e-91
7.50789e-91
-1.29582e-92
2.24664e-90
1.26473e-90
2.31714e-90
-5.5213e-90
-6.61689e-89
2.95942e-89
-1.96879e-88
3.11975e-89
-1.9997e-88
1.57211e-88
-1.8844e-88
1.4032e-88
-3.44964e-88
-3.85881e-88
-6.88067e-88
-4.7093e-87
1.21411e-87
-7.42324e-87
-3.96892e-87
-2.34268e-86
-3.64375e-88
-3.47335e-86
8.67959e-87
-3.10783e-86
4.29524e-85
-2.42287e-85
8.91481e-84
5.88041e-84
-1.57148e-83
2.27337e-83
-1.19624e-82
-7.948e-83
1.98578e-82
-7.92433e-83
-2.90469e-81
2.07421e-82
-2.45779e-79
-2.63938e-79
-3.56635e-79
8.08515e-79
-2.3649e-79
-1.02731e-78
5.03905e-78
-1.04794e-77
2.44602e-77
1.53721e-77
5.27442e-77
-1.49793e-76
-1.97944e-76
7.17693e-76
-3.1425e-75
2.86531e-75
-5.79434e-75
8.03377e-75
-7.45011e-75
9.21941e-75
-2.21914e-74
1.99378e-74
-2.56294e-74
2.04138e-74
-3.53803e-74
2.5999e-74
-5.68063e-74
4.86147e-74
-2.63821e-73
1.37551e-73
-8.63922e-73
-6.22834e-73
3.13706e-73
-3.42927e-72
1.23209e-72
-5.19009e-72
3.85421e-72
-1.27949e-71
9.27822e-72
-2.23656e-71
2.47925e-71
-1.64944e-71
4.03554e-71
5.24211e-71
-8.01936e-72
1.27052e-70
-6.53713e-71
2.60523e-70
-3.17577e-70
5.61426e-70
-3.70955e-70
3.93057e-70
-4.15037e-70
2.70555e-70
-4.06164e-70
-4.60145e-70
-8.52502e-71
-1.04721e-69
5.70062e-70
-2.85577e-69
1.09267e-69
-3.02316e-69
2.17806e-69
-2.66962e-69
2.65437e-69
-5.05536e-69
3.78575e-69
-2.65248e-69
7.39419e-69
-7.18929e-69
1.01356e-68
-2.84067e-70
1.57715e-68
-1.15527e-68
1.69171e-68
-1.30603e-68
1.41287e-68
-2.37197e-70
2.57846e-68
1.84933e-68
1.29558e-68
2.69832e-68
3.62797e-69
3.85322e-68
-6.08207e-69
1.34033e-67
-5.56797e-68
2.29351e-67
-1.07088e-67
1.67576e-67
-1.65633e-67
3.05527e-67
-1.47499e-67
3.1296e-67
-2.17435e-67
3.63724e-67
-2.66203e-67
7.28871e-67
-4.13307e-67
8.37182e-67
-5.23061e-67
7.86379e-67
-6.00264e-67
7.31639e-67
-5.7877e-67
7.74639e-67
-7.50184e-67
1.25437e-66
-8.59768e-67
8.47038e-67
-9.07481e-67
1.36255e-66
-1.03545e-66
1.92769e-66
-1.45875e-66
2.0877e-66
-1.66154e-66
2.07492e-66
-1.60894e-66
2.51331e-66
-2.01435e-66
1.14076e-66
-1.21047e-66
1.98351e-66
-1.21504e-66
2.01592e-66
-1.21128e-66
1.59621e-66
-1.21379e-66
1.16147e-66
-1.03012e-66
9.23171e-67
-8.91197e-67
1.24185e-66
-8.9708e-67
8.0758e-67
7.65036e-67
3.75453e-67
1.85515e-66
8.53838e-67
1.52538e-66
5.49314e-68
2.72827e-66
-2.05591e-66
4.70986e-66
1.31237e-66
5.32317e-66
-2.81713e-66
7.61911e-66
4.05897e-66
5.60263e-66
1.86711e-66
4.42854e-66
7.22382e-68
4.28636e-66
-6.94747e-67
3.49811e-66
-8.87722e-67
3.32564e-66
-1.84721e-66
6.58667e-66
1.06956e-66
5.8186e-66
-1.92022e-66
6.28793e-66
-1.03253e-66
5.48794e-66
-1.59868e-66
7.78563e-66
5.20699e-68
6.57889e-66
-4.65066e-67
5.47588e-66
1.06237e-68
5.72465e-66
-8.32053e-67
5.09264e-66
-1.83266e-66
5.46319e-66
-2.96144e-66
5.45415e-66
-1.03813e-66
5.08557e-66
8.20055e-68
4.17395e-66
-9.47717e-69
3.67904e-66
-2.86774e-68
3.17297e-66
-4.26666e-67
2.92529e-66
-3.60726e-67
2.3593e-66
-6.99205e-67
2.22217e-66
-7.09492e-67
1.94024e-66
-9.82881e-67
1.71672e-66
-4.95053e-67
1.30012e-66
-4.52209e-67
9.86838e-67
-5.66579e-67
8.32585e-67
-2.7272e-67
5.5121e-67
4.24569e-68
2.7308e-67
-1.34746e-67
1.26412e-67
2.13747e-68
6.43655e-68
1.45176e-68
-4.5945e-68
2.62821e-68
-7.70801e-68
6.05511e-68
-9.85591e-68
5.2175e-68
-1.54328e-67
-4.65471e-69
-2.38474e-67
-5.13205e-68
-2.07177e-67
-2.69301e-69
-2.43717e-67
3.09199e-68
-2.2905e-67
3.47314e-68
-1.96033e-67
1.59381e-68
-1.67556e-67
2.79495e-68
-1.34689e-67
1.20562e-68
-1.08976e-67
1.63094e-68
-9.83711e-68
5.65243e-69
-1.06776e-67
1.58291e-67
-1.03283e-64
2.86406e-66
3.64691e-63
3.92642e-63
5.46888e-62
-2.93892e-62
-2.22271e-59
-1.39957e-60
9.98752e-58
1.27991e-57
-8.81018e-56
-9.5723e-57
1.31253e-53
2.9075e-54
-3.42375e-52
-3.17738e-52
2.1176e-51
8.08168e-51
-8.07386e-53
1.0353e-50
5.55852e-51
1.46769e-50
-3.4718e-49
-1.94884e-49
1.03867e-46
5.0809e-48
-3.31265e-45
-1.9885e-45
-6.78042e-44
6.06346e-44
1.54327e-42
1.42125e-42
-2.7188e-42
-8.88035e-42
1.11721e-41
-1.18312e-40
-5.84453e-42
5.08079e-14
-6.4389e-11
2.08541e-11
-8.35124e-12
2.27181e-16
-8.76006e-16
8.86096e-17
3.08743e-18
2.02349e-16
5.69802e-13
1.43728e-13
1.06677e-12
2.17285e-15
3.83252e-15
-1.53852e-11
9.64076e-10
1.01511e-08
3.69527e-08
7.60145e-08
1.0641e-07
1.17906e-07
1.20427e-07
1.19318e-07
1.18757e-07
1.17274e-07
1.11771e-07
9.7469e-08
7.3024e-08
4.62473e-08
2.47958e-08
1.08617e-08
3.98155e-09
1.14908e-09
2.52926e-10
4.13684e-11
3.19313e-12
-5.62076e-13
-1.83333e-13
-6.54945e-15
2.38185e-15
3.35942e-18
-2.12812e-17
1.65569e-18
-1.23211e-20
-5.79091e-21
5.74714e-22
-3.49969e-23
1.67634e-24
-7.25112e-26
2.78994e-27
-9.41472e-29
2.17338e-30
7.05593e-33
-1.9859e-33
4.23966e-35
4.66014e-37
-1.82428e-38
2.39881e-39
5.5541e-39
-3.02279e-40
-1.12886e-10
-3.01504e-11
-1.26964e-09
1.26456e-10
-2.44103e-10
-1.41843e-10
-1.03153e-11
-1.02493e-10
-6.72041e-11
1.69355e-11
-9.67599e-11
-6.3084e-11
-1.83448e-10
-7.77612e-11
-9.63662e-11
-1.40197e-10
2.97785e-10
1.31356e-10
2.94129e-10
3.92631e-10
3.39483e-10
4.83374e-10
3.81474e-11
3.63293e-10
-2.21643e-10
-5.92754e-11
-3.95192e-10
-1.78215e-10
-5.8236e-10
6.50131e-10
-2.13609e-10
6.83304e-10
-3.72711e-11
7.8082e-10
-2.34801e-09
1.25671e-09
-1.64501e-09
-9.74371e-10
8.65277e-09
5.45625e-08
-1.46522e-08
5.94199e-08
-3.4684e-08
-6.16967e-08
2.72198e-09
-1.28286e-08
6.99995e-08
6.28048e-08
1.14295e-08
7.75333e-08
-9.83709e-08
-7.97387e-08
4.98735e-08
-4.56604e-08
7.18538e-08
1.18247e-07
-8.32824e-08
-1.81228e-08
8.66852e-09
-6.19161e-08
4.09233e-08
5.53117e-08
-2.93301e-08
-2.25516e-09
1.449e-08
-4.71425e-09
4.29895e-10
1.04826e-08
9.173e-09
9.45491e-09
1.09392e-09
2.08524e-08
-5.28621e-09
5.97324e-09
-9.59286e-09
0
-2.15955e-11
-7.11454e-11
-2.65174e-11
-1.07015e-10
8.38521e-11
5.51293e-10
2.67038e-10
-3.35849e-09
-1.29742e-09
2.60498e-11
-3.71794e-11
3.48818e-11
-1.90336e-11
-8.312e-12
2.96995e-11
-2.56166e-12
8.74712e-12
-1.22088e-11
8.873e-12
5.0405e-11
-3.77345e-11
2.91674e-11
-2.57187e-11
0
0
0
2.45912e-10
2.98361e-10
-3.5537e-11
-1.22755e-08
3.05021e-08
-1.65183e-08
2.24025e-11
2.40175e-11
-4.06477e-09
2.57099e-09
4.59217e-11
-1.88515e-11
-8.83395e-20
0
0
3.51646e-18
4.74219e-16
1.48697e-43
2.32727e-18
-3.24886e-35
-2.77238e-30
-3.1821e-28
-1.01368e-25
-1.51647e-25
-2.31479e-24
-3.75439e-24
-2.4245e-22
-1.16198e-22
-1.16773e-22
-8.09719e-23
-1.00935e-22
-9.396e-23
-7.19206e-23
-1.27602e-22
-1.6201e-22
-2.8939e-22
6.03356e-22
-1.82325e-20
3.50405e-20
-4.88135e-22
8.55158e-20
-6.84633e-20
2.57706e-19
7.26608e-19
5.90152e-19
2.48012e-19
1.4267e-19
3.59905e-19
1.51709e-19
-4.02991e-21
3.50295e-19
5.61903e-19
4.00893e-19
-4.2901e-19
-8.30018e-19
-1.13394e-18
5.61327e-19
1.00275e-19
6.27156e-19
2.11276e-18
1.10686e-18
2.56842e-18
5.04355e-18
7.04817e-18
2.90341e-18
-8.71415e-19
-5.86913e-18
-1.06743e-17
-1.22469e-17
-1.35154e-17
-1.28245e-17
-9.62483e-18
-2.91234e-18
2.70341e-18
6.00545e-18
6.83997e-18
8.51198e-18
6.75113e-18
5.66597e-18
3.32161e-18
1.5939e-18
-5.36076e-21
-9.76156e-19
-1.3216e-18
-1.50485e-18
-1.04655e-18
-1.03939e-18
-6.48948e-19
-4.63958e-19
-2.43256e-19
-7.77665e-20
-1.14473e-20
2.88292e-20
4.64115e-20
5.94559e-20
5.0324e-20
3.97602e-20
2.93533e-20
1.9481e-20
1.44275e-20
7.62248e-21
5.27426e-21
3.04439e-21
9.69694e-22
1.71963e-22
-2.98793e-22
-4.33161e-22
-4.21786e-22
-3.23106e-22
-2.80013e-22
-2.10002e-22
-1.21448e-22
1.63306e-22
8.82349e-21
7.68829e-27
1.23674e-28
1.11391e-30
3.47748e-37
3.36516e-09
-1.00773e-11
1.29263e-10
3.84009e-09
2.09802e-08
5.65801e-08
9.32896e-08
1.1402e-07
1.19496e-07
1.2003e-07
1.1905e-07
1.1839e-07
1.15497e-07
1.06212e-07
8.59306e-08
5.9515e-08
3.4564e-08
1.69077e-08
6.73937e-09
2.22526e-09
5.60121e-10
1.06494e-10
1.37221e-11
-1.05779e-16
-3.96392e-13
-5.80574e-14
3.49964e-15
6.43878e-16
-6.46986e-17
-7.81294e-19
5.10771e-19
-4.01724e-20
1.73211e-21
-3.69211e-23
-1.92742e-25
6.51377e-26
-2.48854e-27
-4.22402e-29
8.77185e-30
-5.018e-31
1.31216e-32
-1.43504e-35
-7.3329e-36
5.40191e-38
0
2.29e-12
2.22856e-09
1.19218e-08
7.6258e-12
0
5.45706e-11
6.48362e-11
8.36876e-11
-1.37716e-10
-2.77223e-10
-2.7692e-11
-1.34292e-10
-4.58793e-10
-1.20126e-09
-1.84917e-12
4.08095e-12
1.81539e-11
-2.05408e-12
-2.57885e-12
1.23513e-11
9.04191e-12
2.83392e-11
-4.66498e-11
5.50778e-11
-1.39516e-11
2.36306e-12
6.25153e-12
0
3.18669e-23
2.63861e-33
-1.35417e-11
-8.55554e-12
2.58663e-11
-4.43545e-11
-6.585e-12
-4.29199e-10
9.20948e-10
3.88253e-10
-8.41626e-11
1.54843e-10
1.70251e-10
-4.1089e-38
6.4524e-37
1.02748e-34
-3.51554e-33
-2.46383e-32
5.46335e-30
-1.99068e-28
5.57315e-27
-1.31608e-25
3.02672e-24
-6.89244e-23
1.2438e-21
-1.56056e-20
5.61185e-20
2.31699e-18
-4.30111e-17
1.20709e-16
3.80308e-15
-1.94676e-14
-2.94721e-13
-6.52188e-13
6.38083e-12
6.70756e-11
3.92224e-10
1.70237e-09
5.58395e-09
1.4728e-08
3.20813e-08
5.81134e-08
8.74418e-08
1.12531e-07
1.2575e-07
1.29827e-07
1.30859e-07
1.31736e-07
1.31877e-07
1.2833e-07
1.11363e-07
7.32862e-08
3.05968e-08
-9.03512e-20
-2.95669e-21
-6.74911e-24
3.92883e-23
7.84348e-24
2.38736e-23
5.63722e-23
1.04372e-22
1.95556e-22
3.15347e-22
2.62241e-22
1.24803e-21
1.93812e-21
1.1599e-21
-2.59015e-21
-4.09038e-21
-1.42538e-20
-9.0299e-21
-2.07482e-20
-4.60588e-20
-5.89984e-20
-5.50664e-20
-9.40238e-20
-1.25081e-19
-1.71791e-19
-1.79849e-19
-1.59927e-19
2.81115e-19
3.52157e-19
5.61212e-19
1.36486e-18
1.64626e-18
2.35815e-18
2.39772e-18
2.41839e-18
2.44051e-18
-5.26941e-19
-2.58955e-18
-9.10325e-18
-1.33705e-17
-1.83487e-17
-1.44665e-17
-1.20861e-17
-1.11243e-17
2.20236e-18
1.10644e-17
2.38607e-17
2.29858e-17
2.74441e-17
3.02633e-17
1.13558e-17
2.95767e-18
-3.93428e-18
-7.74364e-18
-9.20351e-18
-7.6736e-18
-4.9321e-18
-2.42202e-18
2.4841e-19
1.84847e-18
1.95334e-18
1.73669e-22
-1.07941e-22
5.97421e-19
-9.82391e-19
-1.20026e-18
1.32146e-19
2.50405e-19
-7.60568e-19
-4.24297e-19
-2.65112e-19
-6.91609e-19
-8.79456e-19
-5.98679e-19
-5.93395e-21
-4.01644e-20
9.44452e-20
-7.31107e-20
8.02341e-20
-7.785e-21
8.56462e-22
7.39845e-23
1.50734e-22
1.55448e-22
2.06908e-22
1.61706e-22
2.15837e-22
2.50324e-22
-1.78941e-11
1.64616e-11
-2.27056e-11
2.22093e-11
6.58272e-12
-1.7007e-11
-4.63468e-12
-1.46163e-09
-2.11962e-09
-1.64599e-09
7.25368e-13
-1.8011e-10
-1.82512e-10
1.60583e-11
1.56016e-37
-1.46601e-35
-1.66569e-34
3.04174e-32
-9.33842e-31
9.93825e-30
1.80843e-28
-1.25887e-26
3.07044e-25
-4.49427e-24
1.01996e-23
2.10961e-21
-6.63732e-20
1.06652e-18
-4.69144e-18
-9.15259e-17
1.31493e-15
3.24115e-15
-1.08133e-13
-5.74854e-13
6.9185e-13
2.40805e-11
1.70163e-10
8.45466e-10
3.18048e-09
9.32212e-09
2.24834e-08
4.40499e-08
7.28463e-08
1.00997e-07
1.20239e-07
1.28433e-07
1.30307e-07
1.31228e-07
1.32197e-07
1.30927e-07
1.22443e-07
9.38208e-08
5.06663e-08
0
-1.44768e-12
-4.11145e-21
3.67735e-22
-9.73359e-24
2.10005e-23
8.46907e-24
6.28551e-23
6.51929e-23
7.43474e-23
1.43929e-22
3.11848e-22
7.90754e-22
1.3006e-21
6.81245e-22
-4.79059e-21
-3.55152e-21
9.94631e-22
-1.74715e-20
-1.98632e-20
-6.14005e-21
-4.05511e-20
-6.4146e-20
-7.87198e-20
-1.00515e-19
-1.13636e-19
-1.3908e-19
-1.82627e-19
6.37552e-20
4.81865e-20
4.26751e-19
9.74154e-19
1.54858e-18
1.66089e-18
3.15115e-18
3.29119e-18
2.66855e-18
2.10934e-19
-3.79852e-18
-4.34482e-18
-1.01023e-17
-1.10403e-17
-1.78838e-17
-1.81557e-17
-1.62812e-17
-7.75419e-18
4.79822e-18
1.78451e-17
2.49563e-17
1.64993e-17
2.08336e-17
1.50727e-17
6.36978e-18
-4.29777e-18
-7.2633e-18
-1.04747e-17
-3.43643e-18
-1.14035e-18
-2.97828e-18
-1.80121e-18
-1.36751e-18
-1.43808e-18
-2.29756e-18
3.8008e-20
-1.02947e-18
-1.50294e-18
-1.57802e-18
-1.01085e-18
-6.36162e-19
-1.69358e-19
4.64142e-19
5.44493e-19
1.19736e-18
2.43141e-19
-1.24263e-19
-4.11079e-20
-5.09558e-20
-2.42875e-20
-1.39279e-20
2.75e-21
-2.10314e-22
1.77092e-22
1.14636e-23
3.78762e-22
2.96256e-22
1.4492e-22
1.64648e-22
1.07325e-22
-1.36904e-22
-1.34277e-23
-1.52921e-22
1.23075e-22
-1.28931e-23
-4.8995e-25
1.00209e-24
4.76995e-25
3.43293e-29
1.00414e-25
6.70471e-09
3.32077e-10
-1.98325e-11
-3.4449e-12
1.93987e-09
1.58544e-08
6.85401e-11
-1.19047e-10
-1.43806e-10
1.45499e-12
-1.39418e-11
8.11777e-12
1.1902e-12
0
0
0
0
0
0
0
0
0
0
0
0
0
0
0
0
0
0
0
0
0
0
0
0
0
0
0
0
0
0
0
0
0
0
0
0
0
0
0
0
0
0
0
0
0
0
0
0
0
0
0
0
0
0
0
0
0
0
0
0
0
0
0
0
0
0
0
0
0
0
0
0
0
0
0
0
0
0
0
0
0
0
0
0
0
0
0
0
0
0
0
0
0
0
0
0
0
0
0
0
0
0
0
0
0
0
0
0
0
0
0
0
0
0
0
0
0
0
0
0
0
0
0
0
0
0
0
0
0
0
0
0
0
0
0
0
0
0
0
0
0
0
0
0
0
0
0
0
0
0
0
0
0
0
0
0
0
0
0
0
0
0
0
0
0
0
0
0
0
0
0
0
0
0
0
0
0
0
0
0
0
0
0
0
0
0
0
0
0
0
-3.60171e-17
6.51018e-16
7.67906e-09
6.60149e-11
1.44815e-35
1.31079e-24
3.33246e-29
1.25393e-26
7.20628e-28
-1.13823e-26
1.1758e-23
-3.47028e-24
-2.701e-24
3.46841e-21
-8.36748e-18
6.50275e-22
-8.45602e-22
1.60595e-31
-4.89533e-30
3.15984e-22
-8.61705e-12
-5.88262e-22
1.35977e-21
1.54557e-21
1.24215e-21
2.13185e-21
1.52081e-21
1.54532e-21
3.41191e-21
1.37031e-22
-4.60732e-22
3.13974e-21
-4.83595e-22
1.86037e-20
4.5046e-23
-4.80524e-19
-4.95411e-19
-4.57143e-19
2.07105e-19
1.69644e-18
4.15384e-18
6.41259e-21
2.56874e-18
1.94742e-19
-5.15759e-18
-8.38625e-18
-1.19484e-17
-1.18014e-17
-1.05308e-17
-5.82956e-18
-1.43811e-17
1.1991e-21
-4.30217e-22
8.28374e-18
6.66496e-18
-9.38176e-18
-5.31404e-18
-2.39467e-17
-3.60354e-17
-3.15651e-17
-7.13602e-17