/*--------------------------------*- C++ -*----------------------------------*\
  =========                 |
  \\      /  F ield         | OpenFOAM: The Open Source CFD Toolbox
   \\    /   O peration     | Website:  https://openfoam.org
    \\  /    A nd           | Version:  7
     \\/     M anipulation  |
\*---------------------------------------------------------------------------*/
FoamFile
{
    version     2.0;
    format      ascii;
    class       volScalarField;
    location    "0.45";
    object      T;
}
// * * * * * * * * * * * * * * * * * * * * * * * * * * * * * * * * * * * * * //

dimensions      [0 0 0 1 0 0 0];

internalField   nonuniform List<scalar> 
2500
(
0.5
0.0669146
-0.0353169
-0.0277115
-0.00789976
0.00112931
0.00220711
0.000963793
3.88593e-05
-0.000206211
-0.000130466
-2.60533e-05
1.76027e-05
1.74511e-05
6.04258e-06
-9.37088e-07
-2.20339e-06
-1.08736e-06
-2.97558e-08
3.25629e-07
2.41306e-07
7.04515e-08
-2.72278e-08
-4.61223e-08
-2.95899e-08
-1.04496e-08
9.59811e-12
2.92109e-09
2.36984e-09
1.16115e-09
3.45968e-10
1.46491e-12
-7.56554e-11
-5.78771e-11
-2.79606e-11
-9.30051e-12
-1.47606e-12
6.52559e-13
7.35662e-13
4.10792e-13
1.65384e-13
4.79099e-14
6.59053e-15
-3.02338e-15
-3.09797e-15
-1.65695e-15
-6.64102e-16
-2.06401e-16
-4.37335e-17
4.58744e-18
0.933085
0.5
0.14482
-0.0139075
-0.0411718
-0.0230289
-0.00507433
0.00215703
0.00250724
0.00101069
-1.28699e-07
-0.000255354
-0.000158222
-3.18395e-05
2.19268e-05
2.21645e-05
7.81616e-06
-1.34315e-06
-3.16332e-06
-1.68568e-06
-1.44826e-07
4.68731e-07
4.21948e-07
1.87759e-07
1.92847e-08
-4.19735e-08
-4.04298e-08
-2.14315e-08
-6.6107e-09
1.55271e-10
1.73156e-09
1.3168e-09
6.28617e-10
1.95868e-10
1.7315e-11
-2.62231e-11
-2.26309e-11
-1.15753e-11
-4.24305e-12
-9.92718e-13
2.39012e-14
1.82501e-13
1.2333e-13
5.63208e-14
1.95229e-14
4.75097e-15
3.07767e-16
-4.89622e-16
-3.74803e-16
-1.60757e-16
1.03532
0.85518
0.5
0.182448
0.00830364
-0.0419281
-0.032441
-0.0120093
3.84112e-05
0.0030776
0.00201929
0.000522619
-0.000189607
-0.000261542
-0.000118271
-5.36689e-06
2.90354e-05
2.01356e-05
4.54922e-06
-3.21421e-06
-3.79897e-06
-1.78826e-06
-1.24026e-07
4.96436e-07
4.51194e-07
2.21376e-07
5.00753e-08
-2.12e-08
-3.06943e-08
-1.92318e-08
-7.73539e-09
-1.54322e-09
5.49531e-10
7.53922e-10
4.54173e-10
1.86959e-10
4.95386e-11
9.41869e-13
-8.36936e-12
-6.16035e-12
-2.92817e-12
-1.02551e-12
-2.36007e-13
6.99546e-16
3.75013e-14
2.55768e-14
1.17665e-14
4.18606e-15
1.11922e-15
4.96065e-17
1.02771
1.01391
0.817552
0.5
0.206389
0.0268058
-0.0388678
-0.0384381
-0.0184167
-0.00302394
0.00284126
0.00282263
0.00118556
4.27119e-05
-0.000295665
-0.000210284
-5.7582e-05
2.18124e-05
3.1819e-05
1.531e-05
7.51017e-07
-4.56636e-06
-3.88517e-06
-1.65822e-06
-1.23135e-07
4.10599e-07
3.77007e-07
1.94353e-07
5.66703e-08
-4.4626e-09
-1.75324e-08
-1.27177e-08
-5.8855e-09
-1.73321e-09
-7.46286e-11
2.95707e-10
2.33416e-10
1.14765e-10
4.02272e-11
8.36929e-12
-1.03966e-12
-2.1527e-12
-1.33659e-12
-5.82157e-13
-1.91114e-13
-4.11614e-14
8.92001e-16
6.73276e-15
4.43341e-15
1.74604e-15
1.0079
1.04117
0.991696
0.793611
0.5
0.223365
0.0421539
-0.0343031
-0.0421138
-0.0239641
-0.00647484
0.00197801
0.00332459
0.0018659
0.000397349
-0.000248427
-0.000287438
-0.00012775
-3.2049e-06
3.76755e-05
2.90976e-05
1.00117e-05
-1.69568e-06
-4.68774e-06
-3.35026e-06
-1.34586e-06
-1.27214e-07
2.76057e-07
2.6004e-07
1.38609e-07
4.61394e-08
3.40485e-09
-7.88542e-09
-6.8083e-09
-3.50133e-09
-1.23769e-09
-2.275e-10
6.95156e-11
9.27544e-11
5.4319e-11
2.25462e-11
6.6987e-12
9.53689e-13
-4.24362e-13
-4.45932e-13
-2.41019e-13
-9.68976e-14
-2.98363e-14
-5.99413e-15
9.37774e-16
0.998871
1.02303
1.04193
0.973194
0.776635
0.5
0.236308
0.0551564
-0.029143
-0.0442026
-0.028648
-0.0100138
0.000662744
0.00351385
0.00248794
0.000828053
-0.000124382
-0.00033917
-0.000211249
-5.0719e-05
2.97092e-05
4.02376e-05
2.28026e-05
5.69949e-06
-2.50006e-06
-3.84375e-06
-2.46669e-06
-9.53703e-07
-1.12967e-07
1.56131e-07
1.53158e-07
8.38321e-08
3.03182e-08
4.87046e-09
-2.74237e-09
-3.06713e-09
-1.7404e-09
-6.92925e-10
-1.80929e-10
-5.1708e-12
2.82215e-11
2.09533e-11
1.00476e-11
3.6031e-12
8.95814e-13
5.36453e-14
-1.00959e-13
-7.70481e-14
-3.75598e-14
-1.15759e-14
0.997793
1.00507
1.03244
1.03887
0.957846
0.763692
0.5
0.246669
0.066383
-0.0238081
-0.0451911
-0.0325548
-0.013473
-0.000953391
0.00342674
0.00302229
0.00130834
7.61264e-05
-0.000352333
-0.000299069
-0.000122146
-2.03952e-07
4.00655e-05
3.35478e-05
1.55372e-05
2.80251e-06
-2.23205e-06
-2.6493e-06
-1.57527e-06
-5.92644e-07
-8.31926e-08
7.60437e-08
7.88071e-08
4.41565e-08
1.69235e-08
3.67471e-09
-6.34208e-10
-1.18116e-09
-7.46561e-10
-3.2643e-10
-1.02305e-10
-1.6515e-11
5.58199e-12
6.64834e-12
3.74051e-12
1.5439e-12
4.84971e-13
9.77465e-14
-5.6281e-15
-1.92581e-14
0.999036
0.997843
1.01201
1.03844
1.0343
0.944844
0.753332
0.5
0.255249
0.0762279
-0.0184985
-0.0453968
-0.0357833
-0.0167596
-0.00275239
0.00311566
0.0034695
0.00183365
0.000366844
-0.000300931
-0.000368617
-0.000207204
-5.3148e-05
2.19595e-05
3.54244e-05
2.33513e-05
9.27464e-06
1.15159e-06
-1.5658e-06
-1.58097e-06
-8.85316e-07
-3.25936e-07
-5.18561e-08
3.23199e-08
3.5995e-08
2.06335e-08
8.26836e-09
2.12857e-09
4.00166e-12
-3.88075e-10
-2.81182e-10
-1.33913e-10
-4.74224e-11
-1.12314e-11
-1.68513e-13
1.66937e-12
1.18164e-12
5.57527e-13
2.0515e-13
4.11479e-14
0.999961
0.997493
0.999962
1.01842
1.04211
1.02914
0.933617
0.744749
0.499998
0.262538
0.0849817
-0.0133042
-0.0450395
-0.0384482
-0.0198595
-0.00468428
0.00259874
0.00381697
0.0023934
0.000759871
-0.000153861
-0.000385646
-0.000281372
-0.000118022
-1.30772e-05
2.47631e-05
2.49114e-05
1.39834e-05
4.87777e-06
3.62863e-07
-9.28949e-07
-8.32573e-07
-4.43491e-07
-1.60419e-07
-2.81172e-08
1.20236e-08
1.47596e-08
8.67144e-09
3.6074e-09
1.04039e-09
1.06536e-10
-1.05684e-10
-9.37108e-11
-4.87682e-11
-1.90071e-11
-5.48215e-12
-8.25873e-13
2.74012e-13
3.14368e-13
1.56861e-13
1.00021
0.998989
0.996922
1.00302
1.02396
1.0442
1.02381
0.923769
0.73746
0.500001
0.26886
0.0928512
-0.0082864
-0.044309
-0.0406993
-0.0228413
-0.00678686
0.00182265
0.00399618
0.00293188
0.00123344
0.00010038
-0.000321102
-0.000315063
-0.000174384
-5.52768e-05
3.77118e-06
1.88505e-05
1.47987e-05
7.33284e-06
2.27486e-06
6.14314e-08
-4.81216e-07
-3.92237e-07
-2.0028e-07
-7.14745e-08
-1.35809e-08
3.87395e-09
5.47615e-09
3.31217e-09
1.42596e-09
4.47433e-10
7.56213e-11
-2.14169e-11
-2.75977e-11
-1.59375e-11
-6.76513e-12
-2.22269e-12
-5.07342e-13
3.55592e-14
1.00013
1
0.997981
0.997159
1.00648
1.02865
1.04519
1.0185
0.915026
0.731154
0.500003
0.274407
0.0999671
-0.00348227
-0.0433322
-0.0426497
-0.0257788
-0.00913097
0.000687832
0.00388554
0.00333734
0.00171338
0.000432214
-0.000171355
-0.000289344
-0.000202327
-9.07186e-05
-2.05168e-05
7.35915e-06
1.1528e-05
7.64262e-06
3.41275e-06
9.49005e-07
-1.88405e-08
-2.2152e-07
-1.67112e-07
-8.23858e-08
-2.91489e-08
-5.95458e-09
1.04061e-09
1.84757e-09
1.15925e-09
5.16299e-10
1.73363e-10
3.76867e-11
-1.53109e-12
-7.07361e-12
-4.69384e-12
-2.18136e-12
-6.38842e-13
1.00003
1.00026
0.999477
0.997178
0.998023
1.01001
1.03255
1.0454
1.01333
0.907177
0.725581
0.499954
0.279318
0.106506
0.00123497
-0.0420222
-0.0442202
-0.0286071
-0.0117007
-0.000860658
0.00337315
0.00347995
0.00209043
0.00077276
3.42705e-05
-0.00020687
-0.000192498
-0.000108347
-4.00658e-05
-5.28503e-06
5.74707e-06
5.9956e-06
3.49436e-06
1.42716e-06
3.58293e-07
-2.36755e-08
-9.17066e-08
-6.49979e-08
-3.11657e-08
-1.09922e-08
-2.40405e-09
2.04758e-10
5.67964e-10
3.74101e-10
1.72672e-10
6.14446e-11
1.56647e-11
1.31471e-12
-1.50745e-12
-1.19099e-12
0.999982
1.00016
1.00019
0.998815
0.996675
0.999334
1.01347
1.03579
1.04506
1.00832
0.900014
0.720539
0.49987
0.283843
0.112843
0.00626457
-0.0399949
-0.0450558
-0.0310275
-0.0142931
-0.00273767
0.00243954
0.00327692
0.00226554
0.00104031
0.000244684
-9.07163e-05
-0.00014977
-0.000104717
-4.9655e-05
-1.50466e-05
-2.85846e-07
3.31608e-06
2.72967e-06
1.4353e-06
5.43061e-07
1.2425e-07
-1.36084e-08
-3.44765e-08
-2.32789e-08
-1.09373e-08
-3.86726e-09
-9.03118e-10
9.72078e-12
1.58777e-10
1.11801e-10
5.36849e-11
2.01288e-11
5.7898e-12
4.40878e-13
0.999982
1.00003
1.00026
0.999957
0.998132
0.996484
1.00096
1.01677
1.03845
1.0443
1.00346
0.893421
0.715974
0.499887
0.288307
0.119418
0.0121055
-0.0367227
-0.0446273
-0.0325563
-0.016524
-0.00469403
0.00119914
0.00274008
0.002194
0.00117451
0.00040916
2.70357e-05
-8.93438e-05
-8.41547e-05
-4.85179e-05
-1.97953e-05
-4.77309e-06
6.61053e-07
1.58449e-06
1.10955e-06
5.36747e-07
1.90482e-07
4.02634e-08
-5.87802e-09
-1.18721e-08
-7.73795e-09
-3.58866e-09
-1.27885e-09
-3.18076e-10
-1.64397e-11
4.00205e-11
3.10103e-11
1.56678e-11
5.08671e-12
0.999994
0.999978
1.00012
1.0003
0.999596
0.99751
0.996594
1.00278
1.01983
1.04059
1.04326
0.998894
0.887437
0.711814
0.499875
0.292611
0.126258
0.0189498
-0.0318555
-0.0424803
-0.0327093
-0.0179541
-0.00638989
-0.000129886
0.00197589
0.00190189
0.001158
0.000496674
0.000118996
-2.88932e-05
-5.53333e-05
-3.9519e-05
-1.96222e-05
-6.95958e-06
-1.24968e-06
5.04074e-07
6.57607e-07
4.09156e-07
1.85067e-07
6.23719e-08
1.24124e-08
-2.10856e-09
-3.77358e-09
-2.40404e-09
-1.10824e-09
-3.99901e-10
-1.05611e-10
-1.10133e-11
8.90761e-12
7.68811e-12
1
0.999978
1.00001
1.00021
1.00024
0.999167
0.997019
0.996947
1.00463
1.02257
1.04242
1.04237
0.994869
0.881787
0.707186
0.498629
0.295612
0.132543
0.0263768
-0.0254829
-0.0384786
-0.0312198
-0.018265
-0.0075214
-0.00130628
0.00114226
0.00146976
0.00101629
0.000503188
0.000171113
1.83285e-05
-2.69668e-05
-2.70332e-05
-1.60993e-05
-7.06343e-06
-2.1868e-06
-2.50331e-07
2.5026e-07
2.43843e-07
1.38783e-07
5.95186e-08
1.92876e-08
3.69982e-09
-6.51035e-10
-1.11438e-09
-7.02306e-10
-3.23918e-10
-1.188e-10
-3.34226e-11
-2.12044e-12
1
0.999992
0.999974
1.00006
1.00027
1.00011
0.998749
0.996646
0.99735
1.00634
1.02525
1.0446
1.04213
0.990982
0.874795
0.699502
0.493404
0.295029
0.136692
0.0334078
-0.0181693
-0.0329083
-0.0281669
-0.017383
-0.00792719
-0.00214878
0.000390361
0.000997401
0.00080072
0.000446508
0.000183684
4.65707e-05
-4.87728e-06
-1.49484e-05
-1.12096e-05
-5.83673e-06
-2.30295e-06
-6.22223e-07
-2.6123e-08
1.01031e-07
8.23999e-08
4.38199e-08
1.80368e-08
5.68833e-09
1.07935e-09
-1.74661e-10
-3.07321e-10
-1.93845e-10
-9.04831e-11
-2.73693e-11
1
1
0.999984
0.99998
1.00011
1.00031
0.999986
0.998339
0.996187
0.997603
1.0082
1.02872
1.04793
1.0421
0.984863
0.862537
0.684397
0.480457
0.288198
0.136973
0.0388816
-0.0107681
-0.0264015
-0.0239577
-0.0154954
-0.00762519
-0.00258195
-0.000178959
0.000569953
0.000566463
0.000354635
0.000166774
5.68492e-05
8.81016e-06
-5.60253e-06
-6.54095e-06
-4.10031e-06
-1.92161e-06
-6.91051e-07
-1.6241e-07
6.81139e-09
3.55926e-08
2.57596e-08
1.30102e-08
5.1948e-09
1.61239e-09
3.10208e-10
-4.00944e-11
-7.97161e-11
-4.65278e-11
1
1
1
0.999973
0.999981
1.00017
1.00041
0.999851
0.997702
0.995394
0.998004
1.01128
1.03409
1.05202
1.0394
0.971477
0.83929
0.657012
0.456519
0.273232
0.132254
0.0419004
-0.00413937
-0.0197377
-0.0191874
-0.0129665
-0.00677748
-0.0026344
-0.000530197
0.000238583
0.000355993
0.000254472
0.000133874
5.41328e-05
1.48615e-05
2.98507e-07
-2.96103e-06
-2.45563e-06
-1.35736e-06
-5.8423e-07
-1.93663e-07
-3.93989e-08
5.56093e-09
1.13272e-08
7.53758e-09
3.66269e-09
1.43179e-09
4.41711e-10
8.86424e-11
-1.60445e-11
0.999999
1
1.00001
0.999991
0.999942
1
1.00034
1.00054
0.999433
0.996519
0.994555
0.999797
1.01696
1.04113
1.05368
1.02816
0.944058
0.799482
0.614035
0.420297
0.249903
0.122461
0.0421122
0.00108867
-0.0136239
-0.0144593
-0.0102117
-0.00561576
-0.00240355
-0.000682725
1.82823e-05
0.000192322
0.000165025
9.68993e-05
4.43674e-05
1.55069e-05
3.17846e-06
-6.82796e-07
-1.2047e-06
-8.23856e-07
-4.14418e-07
-1.66363e-07
-5.13616e-08
-9.0102e-09
2.32474e-09
3.32455e-09
2.08353e-09
9.84174e-10
3.8188e-10
8.91704e-11
1
0.999999
1.00001
1.00001
0.999954
0.999917
1.00014
1.00061
1.00042
0.998335
0.995024
0.995021
1.00466
1.02527
1.04649
1.04638
1.00077
0.896564
0.740113
0.555301
0.373174
0.219772
0.108558
0.0397432
0.00463628
-0.0085422
-0.0102419
-0.00758671
-0.00436665
-0.00201064
-0.000687449
-0.000102755
8.06376e-05
9.56835e-05
6.37335e-05
3.24772e-05
1.31874e-05
3.95796e-06
4.8836e-07
-4.07301e-07
-4.20838e-07
-2.53264e-07
-1.18416e-07
-4.4897e-08
-1.30441e-08
-1.97561e-09
7.7139e-10
9.12141e-10
5.50714e-10
2.17979e-10
1
0.999999
1.00001
1.00001
0.999976
0.999907
1
1.00043
1.00069
0.99959
0.996708
0.994597
0.99869
1.01287
1.03288
1.04323
1.02184
0.950763
0.826334
0.66227
0.484093
0.318791
0.185646
0.0921662
0.0354372
0.00655832
-0.00469856
-0.00680258
-0.00532688
-0.00320242
-0.00156474
-0.000603272
-0.000149879
1.43262e-05
4.80083e-05
3.80384e-05
2.15781e-05
9.82502e-06
3.57366e-06
9.0234e-07
1.40816e-08
-1.64369e-07
-1.32199e-07
-7.25818e-08
-3.20365e-08
-1.15966e-08
-3.2052e-09
-4.24207e-10
2.23968e-10
2.29227e-10
1
0.999999
1
1.00001
0.99999
0.999927
0.999956
1.00025
1.00059
1.0001
0.998115
0.995898
0.997272
1.00611
1.02124
1.03256
1.02247
0.973113
0.875625
0.735484
0.570999
0.406123
0.261901
0.150715
0.0750634
0.0300171
0.00714464
-0.00205931
-0.00421477
-0.0035379
-0.00222349
-0.00114357
-0.000480876
-0.000150668
-1.84354e-05
1.88512e-05
2.03256e-05
1.30796e-05
6.59968e-06
2.73312e-06
8.94462e-07
1.8215e-07
-2.69022e-08
-5.54385e-08
-3.8318e-08
-1.96388e-08
-8.28208e-09
-2.88943e-09
-7.73787e-10
-2.59271e-11
1
0.999999
1
1.00001
0.999994
0.999947
0.999961
1.00016
1.00041
1.00014
0.998842
0.99728
0.997992
1.0038
1.01426
1.02246
1.01502
0.976738
0.897559
0.778104
0.630421
0.473761
0.327859
0.207093
0.117772
0.0587769
0.0242697
0.00679238
-0.000435158
-0.00240979
-0.00222159
-0.00146538
-0.000789924
-0.000355507
-0.00012808
-2.97664e-05
3.2474e-06
9.35342e-06
7.20062e-06
4.04477e-06
1.86125e-06
7.09382e-07
2.08945e-07
3.15111e-08
-1.4036e-08
-1.6704e-08
-1.04189e-08
-5.06439e-09
-2.07265e-09
-5.48629e-10
1
0.999999
1
1.00001
0.999992
0.999958
0.999981
1.00014
1.00029
1
0.999043
0.998136
0.999159
1.00386
1.01134
1.01588
1.00694
0.972317
0.903119
0.798182
0.665496
0.519907
0.378359
0.254958
0.157867
0.0887624
0.0443588
0.0188086
0.00589622
0.000428952
-0.00124215
-0.00131554
-0.000918003
-0.000518015
-0.000246749
-9.79172e-05
-2.94417e-05
-3.65183e-06
3.27454e-06
3.53283e-06
2.26534e-06
1.15211e-06
4.91447e-07
1.73839e-07
4.5946e-08
4.18724e-09
-5.03241e-09
-4.63949e-09
-2.70221e-09
-1.07617e-09
1
0.999999
1
1.00001
0.99999
0.99996
0.999996
1.00015
1.00024
0.999872
0.998993
0.998482
1.00002
1.00468
1.01081
1.01272
1.00123
0.966396
0.901173
0.804585
0.682754
0.547439
0.412712
0.291198
0.191313
0.116251
0.0646683
0.0323468
0.0140226
0.00477906
0.000784353
-0.00054495
-0.000730149
-0.000546663
-0.000323452
-0.00016204
-6.91999e-05
-2.41186e-05
-5.65236e-06
3.39335e-07
1.46454e-06
1.14868e-06
6.52834e-07
3.07296e-07
1.22941e-07
4.06256e-08
9.58076e-09
2.05956e-10
-1.53393e-09
-1.13476e-09
1
0.999999
1
1.00001
0.999989
0.999959
1
1.00016
1.00023
0.999798
0.998887
0.998531
1.00045
1.00543
1.01123
1.01177
0.998209
0.961843
0.897241
0.804401
0.689095
0.561452
0.433379
0.315769
0.216365
0.138803
0.0828767
0.0456472
0.0228454
0.0100895
0.00366479
0.000838651
-0.000166
-0.000374973
-0.000308864
-0.000192604
-0.000101194
-4.58879e-05
-1.76698e-05
-5.31593e-06
-7.9823e-07
4.23408e-07
5.12311e-07
3.37553e-07
1.75703e-07
7.76944e-08
2.94194e-08
9.13145e-09
1.92123e-09
-2.96639e-10
1
0.999999
1
1.00001
0.999988
0.999958
1
1.00017
1.00024
0.999772
0.998809
0.998472
1.00059
1.00587
1.01179
1.01184
0.997057
0.959217
0.893891
0.802086
0.689969
0.567121
0.444185
0.330649
0.233291
0.155525
0.0975841
0.0573262
0.0312857
0.0156622
0.00702611
0.00268212
0.000741868
1.51233e-05
-0.000173271
-0.000164782
-0.000109384
-6.0289e-05
-2.88088e-05
-1.19527e-05
-4.14537e-06
-1.03478e-06
-2.56252e-08
1.8459e-07
1.56556e-07
9.20102e-08
4.47591e-08
1.87939e-08
6.82751e-09
1.4762e-09
1
0.999999
1
1.00001
0.999988
0.999957
1
1.00018
1.00025
0.99977
0.99877
0.998407
1.00058
1.00605
1.01218
1.01218
0.99687
0.958062
0.891802
0.799815
0.688827
0.568476
0.448868
0.338598
0.243594
0.166782
0.108385
0.0666228
0.0385546
0.0208632
0.0104446
0.00474744
0.00188517
0.000589885
8.39576e-05
-6.70355e-05
-8.21917e-05
-5.91443e-05
-3.43226e-05
-1.72192e-05
-7.58973e-06
-2.89703e-06
-8.97622e-07
-1.70153e-07
3.5606e-08
6.20481e-08
4.3685e-08
2.36406e-08
1.09593e-08
3.61763e-09
1
0.999999
1
1.00001
0.999988
0.999956
1
1.00018
1.00025
0.999776
0.998759
0.998366
1.00054
1.00609
1.01237
1.01248
0.997026
0.957734
0.890783
0.798283
0.687417
0.56809
0.450307
0.342227
0.249196
0.173661
0.115629
0.073388
0.044262
0.0252618
0.0135626
0.00678805
0.0031195
0.00127859
0.000436186
9.57958e-05
-1.62197e-05
-3.75437e-05
-3.03094e-05
-1.86719e-05
-9.83145e-06
-4.56727e-06
-1.87344e-06
-6.59023e-07
-1.79298e-07
-2.01057e-08
1.77877e-08
1.82203e-08
1.14544e-08
5.049e-09
1
0.999999
1
1.00001
0.999988
0.999956
1
1.00018
1.00025
0.999781
0.998759
0.998349
1.00051
1.00608
1.01244
1.01265
0.99722
0.957753
0.890415
0.797469
0.686376
0.567301
0.450342
0.343517
0.251857
0.177457
0.120071
0.0779094
0.0483798
0.0286714
0.0161553
0.00860987
0.00430691
0.00199745
0.000839976
0.000305319
8.32257e-05
4.74186e-06
-1.49618e-05
-1.45851e-05
-9.68761e-06
-5.37042e-06
-2.61966e-06
-1.13949e-06
-4.37447e-07
-1.41604e-07
-3.27655e-08
-2.43066e-11
6.10993e-09
4.59002e-09
1
0.999999
1
1.00001
0.999988
0.999956
1
1.00018
1.00025
0.999784
0.998762
0.998344
1.00049
1.00606
1.01245
1.01272
0.997351
0.957857
0.890352
0.797128
0.685779
0.566646
0.449959
0.343743
0.2529
0.179317
0.12255
0.0806883
0.0511221
0.0311116
0.0181409
0.0101009
0.00534607
0.00267208
0.00124862
0.000536172
0.000204493
6.35635e-05
1.10108e-05
-4.45971e-06
-6.46616e-06
-4.77051e-06
-2.80598e-06
-1.43682e-06
-6.57951e-07
-2.70042e-07
-9.73699e-08
-2.88665e-08
-5.38967e-09
1.51638e-09
1
0.999999
1
1.00001
0.999988
0.999956
1
1.00018
1.00025
0.999785
0.998765
0.998345
1.00048
1.00604
1.01244
1.01274
0.997418
0.957945
0.890391
0.797032
0.685502
0.56624
0.449579
0.343599
0.253176
0.180099
0.123798
0.0822554
0.0528106
0.0327309
0.0195511
0.01123
0.00618399
0.00325158
0.00162341
0.00076326
0.000333407
0.000131996
4.48131e-05
1.0923e-05
-1.44933e-07
-2.5291e-06
-2.20775e-06
-1.39892e-06
-7.54515e-07
-3.62597e-07
-1.57311e-07
-6.12556e-08
-2.09165e-08
-4.00054e-09
1
0.999999
1
1.00001
0.999988
0.999956
1
1.00018
1.00025
0.999785
0.998766
0.998346
1.00048
1.00603
1.01243
1.01274
0.997442
0.957996
0.890442
0.797031
0.685403
0.566035
0.449323
0.343399
0.253156
0.180351
0.124349
0.0830603
0.0537709
0.0337294
0.0204837
0.012026
0.00681177
0.00371238
0.0019398
0.000967142
0.000456946
0.000202417
8.25333e-05
2.98431e-05
8.68022e-06
1.24725e-06
-7.66354e-07
-9.41066e-07
-6.61701e-07
-3.79071e-07
-1.91259e-07
-8.71762e-08
-3.62906e-08
-1.07843e-08
1
0.999999
1
1.00001
0.999988
0.999956
1
1.00018
1.00025
0.999785
0.998767
0.998348
1.00048
1.00603
1.01242
1.01274
0.997448
0.958019
0.890476
0.797055
0.685384
0.565951
0.449183
0.343248
0.253063
0.180384
0.12455
0.0834305
0.0542728
0.0343012
0.0210593
0.0125506
0.00725133
0.00405417
0.00218811
0.00113647
0.000565677
0.000268292
0.000120217
5.01847e-05
1.90177e-05
6.16888e-06
1.40834e-06
-6.52892e-08
-3.52711e-07
-2.9356e-07
-1.81611e-07
-9.66008e-08
-4.64533e-08
-1.69284e-08
1
0.999999
1
1.00001
0.999988
0.999956
1
1.00018
1.00025
0.999785
0.998767
0.998348
1.00048
1.00603
1.01242
1.01273
0.997447
0.958027
0.890494
0.797075
0.68539
0.565927
0.44912
0.34316
0.252981
0.18035
0.124598
0.0835772
0.054511
0.0346044
0.0213909
0.0128746
0.00754007
0.00429192
0.00237054
0.00126773
0.000654609
0.000325205
0.000154687
6.9962e-05
2.97654e-05
1.16925e-05
4.08383e-06
1.14814e-06
1.56354e-07
-1.00724e-07
-1.19271e-07
-8.23528e-08
-4.69315e-08
-2.03373e-08
1
0.999999
1
1.00001
0.999988
0.999956
1
1.00018
1.00025
0.999785
0.998767
0.998348
1.00048
1.00603
1.01242
1.01273
0.997444
0.958028
0.890501
0.797087
0.6854
0.565924
0.449098
0.343116
0.252929
0.18031
0.124592
0.0836219
0.0546111
0.0347521
0.0215689
0.0130623
0.00771843
0.00444757
0.00249665
0.0013633
0.000722751
0.000371091
0.000183956
8.76811e-05
3.99573e-05
1.72634e-05
6.97485e-06
2.56915e-06
8.14886e-07
1.84619e-07
-5.45068e-09
-4.18863e-08
-3.50453e-08
-1.93174e-08
1
0.999999
1
1.00001
0.999988
0.999956
1
1.00018
1.00025
0.999785
0.998767
0.998348
1.00048
1.00603
1.01242
1.01273
0.997443
0.958027
0.890503
0.797093
0.685407
0.565928
0.449092
0.343099
0.252901
0.180281
0.124575
0.0836271
0.0546462
0.034817
0.0216574
0.013164
0.00782216
0.00454373
0.00257894
0.00142897
0.000771947
0.000405867
0.000207237
0.000102484
4.89137e-05
2.24259e-05
9.81097e-06
4.05342e-06
1.55369e-06
5.33258e-07
1.49625e-07
2.24482e-08
-1.04834e-08
-1.30074e-08
1
0.999999
1
1.00001
0.999988
0.999956
1
1.00018
1.00025
0.999785
0.998767
0.998348
1.00048
1.00603
1.01242
1.01273
0.997442
0.958026
0.890503
0.797095
0.685411
0.565932
0.449093
0.343093
0.252889
0.180265
0.12456
0.0836211
0.0546543
0.0348418
0.0216977
0.0132155
0.00787891
0.00459985
0.00262977
0.00147169
0.000805556
0.000430771
0.000224699
0.00011411
5.6283e-05
2.68815e-05
1.23837e-05
5.47301e-06
2.30211e-06
9.09871e-07
3.30111e-07
1.0447e-07
2.48373e-08
-1.53222e-09
1
0.999999
1
1.00001
0.999988
0.999956
1
1.00018
1.00025
0.999785
0.998767
0.998348
1.00048
1.00603
1.01242
1.01273
0.997442
0.958026
0.890503
0.797095
0.685413
0.565934
0.449094
0.343092
0.252884
0.180257
0.124551
0.0836143
0.0546534
0.0348493
0.0217141
0.0132396
0.00790805
0.00463078
0.00265953
0.00149807
0.000827353
0.000447692
0.000237109
0.000122745
6.20018e-05
3.04955e-05
1.4567e-05
6.73552e-06
3.0014e-06
1.28093e-06
5.18613e-07
1.95992e-07
6.74535e-08
1.4124e-08
1
0.999999
1
1.00001
0.999988
0.999956
1
1.00018
1.00025
0.999785
0.998767
0.998348
1.00048
1.00603
1.01242
1.01273
0.997442
0.958026
0.890503
0.797095
0.685414
0.565936
0.449096
0.343092
0.252883
0.180253
0.124546
0.0836096
0.0546506
0.0348502
0.0217198
0.0132499
0.00792202
0.00464687
0.00267604
0.00151355
0.000840803
0.000458632
0.000245497
0.000128837
6.62099e-05
3.32685e-05
1.63143e-05
7.79014e-06
3.61196e-06
1.62024e-06
6.99678e-07
2.88721e-07
1.13275e-07
3.24327e-08
1
0.999999
1
1.00001
0.999988
0.999956
1
1.00018
1.00025
0.999785
0.998767
0.998348
1.00048
1.00603
1.01242
1.01273
0.997442
0.958025
0.890503
0.797095
0.685414
0.565936
0.449096
0.343093
0.252883
0.180252
0.124544
0.0836069
0.0546484
0.0348494
0.0217211
0.0132538
0.00792821
0.00465473
0.00268472
0.00152218
0.000848711
0.000465378
0.000250903
0.000132934
6.91581e-05
3.5291e-05
1.76406e-05
8.6235e-06
4.11448e-06
1.91143e-06
8.61975e-07
3.75738e-07
1.58443e-07
5.16989e-08
1
0.999999
1
1.00001
0.999988
0.999956
1
1.00018
1.00025
0.999785
0.998767
0.998348
1.00048
1.00603
1.01242
1.01273
0.997442
0.958025
0.890503
0.797095
0.685414
0.565936
0.449097
0.343093
0.252883
0.180252
0.124543
0.0836056
0.054647
0.0348484
0.0217211
0.013255
0.00793069
0.00465832
0.00268903
0.00152677
0.000853145
0.000469351
0.000254234
0.000135566
7.11309e-05
3.66986e-05
1.85999e-05
9.24972e-06
4.50684e-06
2.14778e-06
9.99036e-07
4.523e-07
1.99928e-07
7.03901e-08
1
0.999999
1
1.00001
0.999988
0.999956
1
1.00018
1.00025
0.999785
0.998767
0.998348
1.00048
1.00603
1.01242
1.01273
0.997442
0.958025
0.890503
0.797095
0.685414
0.565936
0.449097
0.343094
0.252883
0.180252
0.124543
0.0836051
0.0546463
0.0348477
0.0217207
0.0132552
0.00793155
0.00465982
0.00269104
0.00152907
0.000855516
0.000471588
0.000256198
0.000137187
7.23951e-05
3.76361e-05
1.92633e-05
9.69904e-06
4.79885e-06
2.33025e-06
1.10883e-06
5.15986e-07
2.35803e-07
8.73495e-08
1
0.999999
1
1.00001
0.999988
0.999956
1
1.00018
1.00025
0.999785
0.998767
0.998348
1.00048
1.00603
1.01242
1.01273
0.997442
0.958025
0.890503
0.797095
0.685414
0.565936
0.449097
0.343094
0.252884
0.180252
0.124543
0.0836049
0.0546459
0.0348474
0.0217204
0.0132551
0.00793177
0.00466039
0.00269191
0.00153017
0.000856725
0.000472793
0.000257308
0.000138143
7.31724e-05
3.82351e-05
1.97032e-05
1.00079e-05
5.00679e-06
2.46481e-06
1.19269e-06
5.66376e-07
2.65225e-07
1.01878e-07
1
0.999999
1
1.00001
0.999988
0.999956
1
1.00018
1.00025
0.999785
0.998767
0.998348
1.00048
1.00603
1.01242
1.01273
0.997442
0.958025
0.890503
0.797095
0.685414
0.565936
0.449097
0.343094
0.252884
0.180252
0.124543
0.0836048
0.0546458
0.0348472
0.0217202
0.013255
0.00793178
0.00466057
0.00269226
0.00153066
0.00085731
0.000473413
0.00025791
0.000138686
7.36317e-05
3.8603e-05
1.99835e-05
1.02118e-05
5.14888e-06
2.55994e-06
1.254e-06
6.04474e-07
2.88234e-07
1.13707e-07
1
0.999999
1
1.00001
0.999988
0.999956
1
1.00018
1.00025
0.999785
0.998767
0.998348
1.00048
1.00603
1.01242
1.01273
0.997442
0.958025
0.890503
0.797095
0.685414
0.565936
0.449097
0.343094
0.252884
0.180252
0.124543
0.0836048
0.0546458
0.0348471
0.0217201
0.0132549
0.00793174
0.0046606
0.00269239
0.00153087
0.000857578
0.000473717
0.000258222
0.000138981
7.38927e-05
3.88205e-05
2.01554e-05
1.03413e-05
5.24229e-06
2.62458e-06
1.29705e-06
6.32097e-07
3.05463e-07
1.22908e-07
1
0.999999
1
1.00001
0.999988
0.999956
1
1.00018
1.00025
0.999785
0.998767
0.998348
1.00048
1.00603
1.01242
1.01273
0.997442
0.958025
0.890503
0.797095
0.685414
0.565936
0.449097
0.343094
0.252884
0.180252
0.124543
0.0836048
0.0546458
0.0348471
0.0217201
0.0132548
0.00793171
0.0046606
0.00269242
0.00153095
0.000857693
0.00047386
0.000258377
0.000139136
7.40356e-05
3.89444e-05
2.02571e-05
1.04207e-05
5.3015e-06
2.66692e-06
1.32615e-06
6.51373e-07
3.17866e-07
1.29777e-07
1
0.999999
1
1.00001
0.999988
0.999956
1
1.00018
1.00025
0.999785
0.998767
0.998348
1.00048
1.00603
1.01242
1.01273
0.997442
0.958025
0.890503
0.797095
0.685414
0.565936
0.449097
0.343094
0.252884
0.180252
0.124543
0.0836048
0.0546458
0.0348471
0.0217201
0.0132548
0.00793168
0.00466059
0.00269242
0.00153097
0.000857739
0.000473923
0.000258451
0.000139213
7.41105e-05
3.90121e-05
2.03147e-05
1.04673e-05
5.33743e-06
2.69344e-06
1.34495e-06
6.642e-07
3.26366e-07
1.34646e-07
1
0.999999
1
1.00001
0.999988
0.999956
1
1.00018
1.00025
0.999785
0.998767
0.998348
1.00048
1.00603
1.01242
1.01273
0.997442
0.958025
0.890503
0.797095
0.685414
0.565936
0.449097
0.343094
0.252884
0.180252
0.124543
0.0836048
0.0546458
0.0348471
0.0217201
0.0132548
0.00793167
0.00466058
0.00269242
0.00153098
0.000857758
0.000473952
0.000258489
0.000139255
7.4154e-05
3.90533e-05
2.03514e-05
1.04982e-05
5.36217e-06
2.71238e-06
1.35886e-06
6.74026e-07
3.33103e-07
1.38662e-07
)
;

boundaryField
{
    upperWall
    {
        type            zeroGradient;
    }
    outlet
    {
        type            zeroGradient;
    }
    inlet
    {
        type            fixedValue;
        value           uniform 1;
    }
    lowerWall
    {
        type            fixedValue;
        value           uniform 0;
    }
    frontAndBack
    {
        type            empty;
    }
}


// ************************************************************************* //
