/*--------------------------------*- C++ -*----------------------------------*\
  =========                 |
  \\      /  F ield         | OpenFOAM: The Open Source CFD Toolbox
   \\    /   O peration     | Website:  https://openfoam.org
    \\  /    A nd           | Version:  7
     \\/     M anipulation  |
\*---------------------------------------------------------------------------*/
FoamFile
{
    version     2.0;
    format      ascii;
    class       volScalarField;
    location    "0.54";
    object      T;
}
// * * * * * * * * * * * * * * * * * * * * * * * * * * * * * * * * * * * * * //

dimensions      [0 0 0 1 0 0 0];

internalField   nonuniform List<scalar> 
45544
(
0
0
0
0
0
0
0
0
0
0
0
0
0
0
0
0
0
0
0
0
0
0
0
0
0
0
0
0
0
0
0
0
0
0
0
0
0
0
0
0
0
0
0
0
0
0
0
0
0
0
0
0
0
0
0
0
0
0
0
0
0
0
0
0
0
0
0
0
0
0
0
0
0
0
0
0
0
0
0
0
0
0
0
0
0
0
0
0
0
0
0
0
0
0
0
0
0
0
0
0
0
0
0
0
0
0
0
0
0
0
0
0
0
0
0
0
0
0
0
0
0
0
0
0
0
0
0
0
0
0
0
0
0
0
0
0
0
0
0
0
0
0
0
0
0
0
0
0
0
0
0
0
0
0
0
0
0
0
0
0
0
0
0
0
0
0
0
0
0
0
0
0
0
0
0
0
0
0
0
0
0
0
0
0
0
0
0
0
0
0
0
0
0
0
0
0
0
0
0
0
0
0
0
0
0
0
2.15616e-36
-1.21592e-31
8.84209e-31
-3.97048e-27
-9.31063e-27
-1.15182e-26
7.83074e-28
2.75719e-26
6.7993e-26
2.8613e-25
3.50627e-25
1.29627e-25
2.13971e-25
-1.40349e-25
1.7824e-25
2.67274e-26
9.16927e-24
-1.30719e-23
-5.78107e-23
-1.15007e-23
2.06384e-22
5.37927e-23
1.38056e-22
4.98495e-23
-4.61939e-23
-2.16588e-22
-4.03944e-22
-5.85349e-22
-2.33514e-22
2.25585e-22
-1.23433e-21
-2.50617e-22
-3.90173e-22
-3.25246e-22
-2.82816e-22
8.35403e-22
1.55718e-21
1.81256e-21
3.13109e-21
2.43909e-21
3.91241e-21
3.48049e-21
1.96316e-21
2.7998e-22
-1.80548e-21
-2.67799e-21
-3.80758e-21
-2.81605e-21
-2.74627e-21
-2.11348e-21
-8.23709e-22
-1.90932e-22
1.94429e-22
5.09391e-22
5.88165e-22
6.11278e-22
4.74177e-22
3.53479e-22
1.43706e-22
1.04568e-22
6.07325e-23
-3.49057e-24
-8.502e-24
-1.70105e-23
-1.43021e-23
-1.24396e-23
-8.24302e-24
-6.30342e-24
-4.42125e-24
-1.96102e-24
-1.00397e-24
-5.25167e-25
-2.22968e-25
-2.35534e-26
1.10413e-25
8.87681e-26
7.2158e-26
5.33982e-26
3.73332e-26
2.2664e-26
1.55329e-26
1.00122e-26
4.67179e-27
2.62888e-27
9.31046e-28
6.1314e-28
3.14676e-28
1.71268e-28
6.31827e-29
1.27335e-30
-5.0592e-29
-8.40795e-28
1.77639e-24
0
0
0
0
0
0
0
0
0
0
0
0
0
0
0
0
0
0
0
0
0
0
0
0
0
0
0
0
0
0
0
0
0
0
0
0
0
0
0
0
0
0
0
0
0
0
0
0
0
0
0
0
0
0
0
0
0
0
0
0
0
0
0
0
0
0
-7.61298e-120
0
-5.69033e-112
-7.11291e-112
-2.15656e-111
-2.69569e-111
-1.37298e-111
-1.71623e-111
-2.27091e-110
7.3106e-110
-1.13662e-107
-1.40209e-107
-1.41334e-107
-1.74182e-107
-3.16745e-107
-2.77297e-107
-2.97317e-107
1.72413e-107
5.48187e-106
1.39537e-105
-1.73991e-103
3.64749e-103
-7.87855e-102
-6.50064e-102
-8.15085e-102
-7.99708e-102
-5.5876e-102
-5.00468e-102
-9.02994e-102
3.77671e-103
-7.6973e-100
-8.68046e-100
-4.90762e-100
-5.41478e-100
-9.97786e-100
2.04608e-99
-7.79187e-99
-5.47477e-99
-9.18379e-99
-8.59727e-99
-9.7876e-99
-7.58501e-99
-8.49505e-99
-1.53583e-99
-4.14496e-98
-4.38885e-98
-6.82862e-98
-7.01026e-98
-4.60253e-98
-4.73996e-98
-1.14323e-96
9.94434e-98
-2.21424e-94
-2.24739e-94
-1.74175e-94
-2.04926e-95
-1.20889e-94
6.45402e-95
-1.07303e-93
5.40538e-93
1.25969e-91
-2.67842e-91
-2.45065e-90
7.57771e-90
-1.6522e-89
2.93809e-89
-1.12743e-87
2.46421e-88
-3.46919e-87
-2.57522e-87
-2.22615e-87
-1.17721e-87
-9.64783e-87
2.59002e-86
-5.29415e-86
-1.56346e-86
-8.65538e-86
-4.89795e-86
-2.22581e-85
-1.3898e-85
1.18906e-84
-1.29664e-84
5.21761e-83
3.86099e-83
3.21487e-83
5.08659e-83
-3.05929e-84
1.1913e-82
-9.79179e-83
1.6722e-82
-9.36764e-83
4.83691e-82
-4.3282e-81
3.93305e-81
-1.2289e-79
-8.87932e-80
-1.01075e-79
-1.14601e-79
9.67525e-80
-6.39331e-79
5.19796e-79
-1.67896e-78
9.09518e-79
-1.2738e-78
1.79854e-78
-2.77315e-78
3.26685e-78
-4.28828e-78
9.07546e-78
5.45605e-78
1.03059e-77
-9.84388e-78
1.46831e-77
1.62133e-78
1.29558e-77
-2.32123e-78
7.62343e-78
1.6118e-77
-2.06332e-78
3.70431e-77
-2.17141e-77
9.54502e-77
-3.98131e-77
1.9533e-76
-1.23735e-76
4.36202e-76
-2.10897e-76
3.46608e-76
-2.36103e-76
3.2435e-76
-3.38951e-76
6.03063e-76
-3.62295e-76
5.39928e-76
-1.57193e-76
8.59642e-76
-2.28777e-75
7.09514e-75
-6.54389e-75
1.04707e-74
-9.96503e-75
1.81225e-74
-1.35639e-74
1.7628e-74
-1.62147e-74
2.20399e-74
-3.80011e-74
2.69152e-74
-8.89951e-74
1.16318e-73
-9.25231e-74
9.31418e-74
-9.10359e-74
8.12094e-74
-8.60194e-74
7.20281e-74
-1.56858e-73
1.50637e-73
-2.15533e-73
3.75864e-74
-1.74766e-73
6.41228e-74
-1.86245e-73
1.40109e-73
-2.05505e-73
1.62942e-73
-2.05351e-73
1.36088e-73
-1.97667e-73
1.86551e-73
-2.16979e-73
1.89264e-73
-1.97354e-73
2.57094e-73
-1.49482e-73
2.56095e-73
-1.54845e-73
1.56029e-73
-5.99287e-74
1.935e-73
-7.37128e-74
1.16997e-73
-6.93337e-74
7.5737e-74
2.29044e-73
3.25653e-73
1.33375e-73
1.84494e-73
2.91483e-73
-5.69014e-73
8.62662e-73
-3.7653e-73
1.04758e-72
1.11038e-73
1.22054e-72
-1.28674e-73
1.30783e-72
-1.04092e-72
1.53993e-72
-6.6137e-73
1.82668e-72
-1.70344e-72
2.04438e-72
-3.21796e-73
1.88706e-72
2.4204e-73
1.54482e-72
5.81457e-74
1.41179e-72
3.42526e-73
1.29859e-72
5.15465e-73
1.29988e-72
-7.3208e-73
2.11315e-72
9.3127e-73
1.70956e-72
2.99887e-73
1.32373e-72
2.7267e-73
1.94195e-72
9.85989e-74
2.61498e-72
1.57423e-72
1.82957e-72
9.94007e-73
1.43232e-72
3.9055e-73
1.35565e-72
5.89857e-73
1.24774e-72
5.45922e-73
1.26157e-72
3.94484e-73
1.03187e-72
5.78304e-74
7.85697e-73
1.15122e-73
6.29445e-73
1.03178e-74
5.05464e-73
5.95932e-74
6.48515e-73
2.70861e-73
4.77025e-73
2.13909e-73
5.99089e-73
1.37439e-73
7.49236e-73
4.70084e-73
5.20023e-73
2.79024e-73
4.19803e-73
5.54425e-74
4.55363e-73
7.52982e-74
4.15685e-73
1.43141e-73
3.56411e-73
5.81178e-74
3.19828e-73
8.6608e-76
4.26137e-73
2.08845e-73
3.1163e-73
1.29843e-73
2.8737e-73
1.02245e-73
2.56887e-73
1.25288e-73
1.89954e-73
8.71316e-74
1.49863e-73
3.06205e-74
2.30595e-73
1.30243e-73
1.59906e-73
7.54068e-74
1.30927e-73
9.10484e-75
1.2471e-73
1.95787e-74
1.0554e-73
3.20142e-74
8.25328e-74
2.48717e-74
6.67686e-74
1.93339e-74
6.75905e-74
4.36498e-74
4.93565e-74
2.23574e-74
4.01156e-74
1.95087e-74
2.88088e-74
1.36004e-74
2.0875e-74
1.06245e-74
1.61704e-74
7.01236e-75
-1.10428e-72
-8.44157e-73
3.10257e-71
3.46504e-71
1.27465e-67
-3.41066e-69
-1.33591e-65
-9.75499e-66
2.06053e-64
3.79619e-64
-2.12141e-63
-1.19302e-62
-3.96654e-64
-2.65271e-63
-2.51636e-63
2.99362e-64
2.55054e-60
1.94172e-61
1.86054e-58
7.73381e-60
2.74186e-57
-1.40551e-56
-6.79045e-55
-5.75023e-55
-4.65205e-55
1.97367e-53
6.57003e-53
-3.64513e-52
8.01438e-51
-4.865e-53
-4.29913e-49
-2.73045e-23
9.64848e-22
1.68198e-20
-6.57304e-19
-6.58955e-17
4.72813e-17
3.17434e-14
3.9177e-13
1.89867e-12
5.2138e-12
9.13276e-12
1.2096e-11
1.34076e-11
1.37931e-11
1.38892e-11
1.39272e-11
1.39164e-11
1.32909e-11
1.14597e-11
8.60518e-12
5.59351e-12
3.15912e-12
1.52252e-12
6.48011e-13
2.33545e-13
7.26518e-14
2.02159e-14
4.46352e-15
7.0176e-16
5.8504e-17
-1.48902e-18
-5.24445e-19
-7.27974e-23
2.55982e-21
-7.63932e-23
-4.81551e-24
3.94296e-25
-1.27577e-26
2.52139e-28
-1.77779e-30
4.48792e-32
-2.26202e-33
1.54159e-34
-5.61165e-36
6.09402e-38
1.81819e-39
-3.46706e-41
-5.69231e-43
-1.55426e-45
-1.01364e-08
-4.95103e-08
-5.83248e-08
4.86854e-08
2.36944e-08
-3.75304e-08
1.55982e-08
-6.21759e-08
-5.25456e-08
-2.79036e-08
-3.90894e-08
5.07253e-08
4.58252e-09
9.37111e-08
8.66968e-08
-5.87069e-09
6.56702e-08
-9.85633e-08
-2.12988e-08
-2.0849e-07
-1.3885e-07
-1.05984e-07
-1.67084e-07
5.43896e-08
-1.12048e-08
1.41954e-07
5.77656e-08
-3.29085e-08
-1.024e-07
-6.28972e-07
-6.01616e-07
-1.71122e-06
-1.14969e-06
-1.71582e-06
-1.43732e-06
1.3079e-07
-1.58956e-06
2.8049e-06
-8.8453e-07
2.16036e-06
1.81866e-05
8.81713e-06
1.21993e-05
2.4753e-05
-1.82032e-06
6.56654e-06
4.4666e-06
-2.65657e-07
2.24863e-05
1.88617e-05
1.82155e-05
2.93545e-05
-3.23431e-06
9.36225e-06
-1.13e-06
-4.93257e-06
1.42466e-05
9.80789e-06
1.28041e-05
1.87007e-05
1.9736e-07
8.14293e-06
1.86683e-06
2.14575e-06
6.47146e-06
6.49402e-06
8.1522e-06
9.20532e-06
7.58364e-06
1.068e-05
7.94235e-06
9.54055e-06
1.16322e-05
1.49224e-05
7.75009e-06
1.33815e-05
4.68362e-06
7.19868e-06
-1.10997e-08
2.10769e-08
-1.60836e-08
1.63195e-08
5.58118e-09
-5.2253e-09
1.17104e-07
-3.37601e-07
-1.43304e-06
1.96403e-06
2.26528e-08
-1.69524e-08
2.05753e-09
-3.16477e-09
-3.02412e-09
-3.46258e-09
-5.61207e-09
1.33886e-08
-3.39087e-08
2.13709e-08
5.54403e-25
0
0
0
0
0
0
1.57863e-38
-4.32621e-34
2.59795e-30
2.01525e-28
3.73972e-27
-6.30296e-27
-1.75713e-27
-1.60104e-25
3.09831e-26
-1.04401e-26
1.60657e-25
1.4617e-25
1.41644e-25
3.30436e-25
1.2665e-25
2.27722e-25
-7.15341e-25
-6.49291e-24
-3.68229e-23
2.45508e-22
2.78249e-23
1.58276e-22
2.22676e-22
9.72887e-23
-1.93995e-22
2.97234e-23
5.69145e-23
3.65876e-22
1.60183e-22
-7.98895e-22
-4.81246e-22
-6.2376e-22
1.30181e-22
-1.10348e-21
8.5656e-23
2.64935e-23
4.09454e-23
3.11631e-21
3.50304e-21
3.87522e-21
3.3741e-21
4.90183e-21
3.91029e-21
2.03356e-21
-2.64694e-22
-3.76073e-21
-2.87425e-21
-4.53518e-21
-2.39839e-21
-2.9531e-21
-1.76798e-21
-7.35422e-22
-1.29969e-22
4.27049e-22
5.1767e-22
5.8314e-22
5.36028e-22
3.6356e-22
3.125e-22
1.34003e-22
8.01215e-23
3.62419e-23
-7.09713e-24
-1.26488e-23
-1.59141e-23
-1.5036e-23
-1.14144e-23
-8.0809e-24
-5.18603e-24
-3.63409e-24
-1.35617e-24
-7.63738e-25
-3.32436e-25
-7.62838e-26
2.6738e-26
9.42789e-26
8.13609e-26
6.52125e-26
4.5122e-26
3.13142e-26
1.99395e-26
1.231e-26
8.21601e-27
4.01308e-27
1.985e-27
7.74693e-28
4.2078e-28
2.32994e-28
9.69516e-29
9.8037e-30
-8.45389e-30
5.48293e-29
0
-6.61913e-26
0
-3.84975e-23
1.3194e-22
-5.39088e-49
3.08251e-22
-1.0248e-20
3.84944e-19
-1.24534e-17
-1.90808e-16
5.02013e-15
1.2332e-13
9.55425e-13
3.3128e-12
7.16633e-12
1.08086e-11
1.2893e-11
1.36784e-11
1.38601e-11
1.3888e-11
1.39664e-11
1.37056e-11
1.2538e-11
1.0095e-11
7.08064e-12
4.29106e-12
2.25902e-12
1.01794e-12
3.96786e-13
1.334e-13
3.93073e-14
9.89358e-15
1.90514e-15
2.28826e-16
9.41161e-18
-1.46851e-18
-1.03155e-19
7.8165e-21
2.9291e-22
-3.67216e-23
9.35771e-25
2.41271e-26
-2.54058e-27
9.31484e-29
-2.95554e-30
7.28033e-32
-1.59313e-33
2.01062e-35
3.4194e-37
-1.82698e-38
6.51213e-41
5.8444e-42
3.61299e-44
-1.05163e-08
4.27761e-47
2.34463e-06
4.14772e-06
6.58838e-06
8.91447e-09
3.07014e-09
-9.6502e-09
1.66099e-08
-5.55238e-08
5.14643e-08
-1.93672e-08
-1.18962e-06
-9.26323e-07
6.77786e-09
5.47621e-06
-5.35774e-09
-3.21528e-09
-1.32322e-09
-2.91025e-09
-2.22045e-09
9.43119e-10
-7.79037e-09
-8.84937e-09
-1.31635e-09
3.75624e-09
0
0
0
0
0
-1.81417e-51
-5.22558e-34
3.58669e-30
-1.52335e-28
7.51054e-26
-6.29201e-26
4.88766e-26
-4.98031e-25
-3.54888e-25
-5.05649e-25
-4.69704e-25
-1.68774e-25
-2.2335e-25
4.40453e-27
-9.00542e-25
-2.01789e-24
-4.03671e-24
3.78035e-24
5.724e-23
-2.33664e-22
1.32255e-23
1.34938e-22
-6.90554e-22
3.96567e-22
5.15497e-22
5.0335e-22
8.34391e-22
1.04589e-21
1.64076e-21
2.75525e-23
1.59238e-21
-4.77043e-22
5.07852e-22
-4.51791e-22
-2.32839e-21
-2.27199e-21
-4.21216e-21
-2.86567e-21
-6.5874e-21
-9.52675e-21
-4.65318e-21
-7.27196e-21
7.39088e-22
1.2238e-21
3.92208e-21
4.4776e-21
6.47394e-21
4.22964e-21
4.33469e-21
1.72573e-21
-3.20653e-22
-2.62502e-22
-5.23878e-22
-7.22239e-22
-5.97187e-22
-5.53211e-22
-3.33913e-22
-2.55521e-22
2.45817e-23
-5.95439e-23
-2.96616e-23
4.12435e-23
3.29115e-24
9.83892e-24
6.069e-24
3.03289e-24
2.47521e-24
2.354e-24
1.49768e-24
-7.72776e-25
6.63788e-25
-1.7189e-25
-1.38576e-25
3.54719e-26
-6.95933e-26
3.73692e-26
2.62023e-26
9.5261e-27
8.79721e-27
4.21404e-27
2.25308e-27
2.67247e-28
2.12183e-27
7.24986e-29
-1.27564e-28
-1.00774e-28
-1.75673e-28
3.06215e-29
-3.90369e-29
-4.98031e-29
1.85503e-29
-1.2696e-28
1.98328e-26
7.62647e-20
-2.79085e-18
-1.2366e-16
7.3443e-16
6.42623e-14
6.86151e-13
2.899e-12
7.19098e-12
1.16725e-11
1.459e-11
1.57411e-11
1.60691e-11
1.60944e-11
1.62118e-11
1.60655e-11
1.50958e-11
1.2552e-11
9.07904e-12
5.67527e-12
3.08839e-12
1.42738e-12
5.80152e-13
1.98807e-13
5.95522e-14
1.56658e-14
3.19662e-15
4.26594e-16
2.36616e-17
-2.2675e-18
-2.39351e-19
1.15746e-20
8.35484e-22
-7.06215e-23
9.8742e-25
8.77969e-26
-6.04745e-27
1.9902e-28
-6.25517e-30
1.50527e-31
-3.57415e-33
5.73695e-35
4.18241e-37
-4.2323e-38
2.53871e-40
1.3023e-41
7.74047e-44
1.16266e-46
2.38864e-08
2.7297e-09
-2.28992e-08
9.39312e-09
-4.1889e-08
4.16449e-09
2.90201e-07
-2.21495e-07
-7.45217e-07
7.61104e-07
-1.03457e-08
7.80187e-09
5.00943e-09
4.3031e-09
4.57575e-09
3.48389e-09
3.34643e-09
1.82263e-08
-1.5182e-08
9.36851e-09
0
0
0
0
0
-2.84679e-36
2.01859e-33
-4.86735e-29
-4.04148e-27
-1.61721e-25
1.27168e-26
-5.73804e-26
-1.31491e-25
-4.76194e-25
-3.47123e-25
-2.99435e-26
-2.19272e-25
2.673e-25
-1.16764e-24
-8.40125e-25
5.50037e-27
-3.99339e-24
-6.4671e-23
6.43541e-23
-1.57421e-22
-1.80072e-22
1.04002e-22
-9.04669e-23
-3.90844e-22
-1.01219e-21
-1.06782e-21
-8.9103e-22
-7.86801e-23
1.19283e-21
2.75131e-21
4.05913e-22
1.52731e-21
1.5983e-21
2.12438e-21
-4.79448e-22
-2.27707e-21
-5.59151e-21
-7.64644e-21
-5.22628e-21
-1.67363e-21
-5.89096e-21
-5.04866e-22
2.81483e-21
5.70725e-21
6.16073e-21
6.09388e-21
4.71698e-21
3.53058e-21
3.75894e-21
-7.49221e-23
4.47358e-22
-5.02307e-22
-9.33165e-22
-5.53591e-22
-5.40624e-22
-2.89393e-22
-2.56265e-22
-6.96112e-23
-1.04723e-22
-4.56455e-23
2.68494e-23
3.9922e-25
7.6107e-24
4.86822e-24
7.3303e-24
2.36756e-24
3.61128e-24
1.29211e-24
-6.78816e-25
4.22308e-25
-2.80947e-25
-3.43372e-25
-8.98255e-26
-5.1878e-26
5.82734e-26
1.41574e-26
8.2926e-27
1.07036e-26
6.42043e-27
2.10769e-27
1.48471e-27
1.69131e-27
-1.59521e-28
1.15094e-28
-1.35685e-28
-1.28826e-28
6.46732e-29
9.35358e-30
-6.37034e-30
-2.58216e-30
-6.53526e-29
-1.84003e-27
-2.86555e-16
1.24629e-14
2.33292e-13
1.54245e-12
4.84662e-12
9.52472e-12
1.34361e-11
1.53375e-11
1.60373e-11
1.60714e-11
1.61419e-11
1.61786e-11
1.57026e-11
1.40154e-11
1.08713e-11
7.28779e-12
4.27212e-12
2.12665e-12
9.27949e-13
3.43049e-13
1.10175e-13
3.16011e-14
7.36625e-15
1.23015e-15
1.19576e-16
-3.84505e-19
-9.85563e-19
-1.75636e-20
5.14036e-21
-8.01313e-23
-1.32832e-23
7.92438e-25
-2.02022e-26
2.54139e-28
5.45683e-30
-1.44471e-31
4.67291e-34
2.36507e-34
-1.1728e-35
1.77453e-37
3.34882e-39
-8.64698e-41
-1.18402e-42
-3.70862e-45
-1.78211e-48
1.9328e-08
-4.3621e-09
1.32669e-08
4.86094e-08
8.99393e-09
2.26621e-07
7.66345e-08
-5.38104e-07
-2.43717e-07
5.46803e-06
-4.41151e-09
7.67857e-09
3.19469e-09
4.06832e-09
4.73463e-09
7.17936e-09
-1.74224e-09
4.48865e-09
1.48945e-10
7.42267e-10
0
1.22315e-21
-2.87496e-17
6.80957e-19
-2.14634e-20
-2.38903e-09
0
0
0
0
0
0
0
0
0
0
0
0
0
0
0
0
0
0
0
0
0
0
0
0
0
0
0
0
0
0
0
0
0
0
0
0
0
0
0
0
0
0
0
0
0
0
0
0
0
0
0
0
0
0
0
0
0
0
0
0
0
0
0
0
0
0
0
0
0
0
0
0
0
0
0
0
0
0
0
0
0
0
0
0
0
0
0
0
0
0
0
0
0
0
0
0
0
0
0
0
0
0
0
0
0
0
0
0
0
0
0
0
0
0
0
0
0
0
0
0
0
0
0
0
0
0
0
0
0
0
0
0
0
0
0
0
0
0
0
0
0
0
0
0
0
0
0
0
0
0
0
0
0
0
0
0
0
0
0
0
0
0
0
0
0
0
0
0
0
0
0
0
0
0
0
0
0
0
0
0
0
0
0
0
0
0
0
0
0
0
0
0
0
0
0
0
1.15301e-21
3.57376e-22
8.27308e-22
9.48724e-20
0
0
0
1.65586e-36
-2.23536e-32
1.68363e-28
-2.04805e-27
2.04234e-24
-8.63433e-25
-1.29462e-24
-4.76161e-24
-5.1732e-24
-3.59972e-24
-3.14043e-24
8.32066e-25
-3.5807e-24
-1.50468e-24
-5.89172e-24
-2.50093e-23
-3.74856e-23
6.00538e-22
-1.33158e-21
-8.41105e-21
-4.17992e-21
-8.6862e-22
-1.24741e-20
-1.95917e-21
8.4114e-21
7.4798e-21
7.56615e-21
6.64932e-21
1.19361e-20
2.06246e-20
3.62184e-20
2.41515e-20
1.16943e-20
2.06434e-20
1.19954e-20
3.27353e-20
4.99697e-20
1.81182e-20
-1.67244e-20
-7.61629e-20
-7.89777e-20
-1.71041e-19
-1.48458e-19
-1.7668e-19
-1.24215e-19
-2.29561e-20
8.41058e-21
4.2713e-20
6.43043e-20
7.38945e-20
5.30305e-20
4.88926e-20
3.42707e-20
1.08112e-20
3.45237e-21
-2.03087e-21
-5.04676e-21
-5.53526e-21
-4.55917e-21
-4.1561e-21
-3.29184e-21
-1.43001e-21
-1.01318e-21
-5.44534e-22
-1.46915e-22
3.18539e-23
6.7605e-23
8.88791e-23
8.42322e-23
5.73741e-23
4.73258e-23
2.70068e-23
1.63942e-23
1.09371e-23
4.40288e-24
2.97932e-24
1.46599e-24
2.71912e-25
1.59708e-25
-9.35009e-26
-1.0351e-25
-1.00916e-25
-9.42808e-26
-6.70756e-26
-4.58361e-26
-2.69122e-26
-1.81079e-26
-9.89571e-27
-6.40463e-27
-3.51062e-27
-6.03205e-28
-4.76647e-27
6.41574e-25
-3.12682e-16
0
1.00714e-24
0
0
0
0
0
0
0
0
0
0
0
0
0
0
0
0
0
0
0
0
0
0
0
0
0
0
0
0
0
0
0
0
0
0
0
0
0
0
0
0
0
0
0
0
0
0
0
0
0
0
0
0
0
0
0
0
0
0
0
0
0
0
0
0
0
0
-9.43571e-118
0
-7.04433e-110
-8.78595e-110
-1.06639e-109
-1.32735e-109
-2.62993e-109
-8.57094e-110
-8.60621e-106
-1.08436e-105
-1.68697e-105
-2.08057e-105
-1.1031e-105
-1.34356e-105
-4.69652e-105
-2.76072e-105
-1.47558e-105
2.06959e-107
-8.16084e-103
1.93876e-104
-1.10691e-100
-1.02115e-100
-5.35399e-100
-4.70483e-100
-3.62409e-100
-2.87174e-100
-4.61374e-100
6.82867e-100
-1.67765e-99
-9.39382e-100
-3.26673e-98
-3.31986e-98
-2.84403e-98
-1.71838e-98
-7.80419e-97
-7.56405e-97
-1.07106e-96
-1.06924e-96
-7.30322e-97
-6.82964e-97
-1.07365e-96
-4.361e-97
-1.88472e-96
-1.75351e-96
-1.7718e-96
-1.61031e-96
-3.26125e-96
-3.16109e-96
-2.40826e-96
-2.49142e-96
-7.93596e-95
-1.00871e-94
-1.83573e-92
-2.25738e-92
-6.62532e-92
2.45068e-91
-8.94683e-92
1.24161e-91
-1.1754e-90
-2.41213e-91
1.08393e-88
4.4891e-89
-8.26549e-88
3.94876e-87
-4.40864e-87
7.18415e-87
-1.16337e-85
-3.67101e-86
-1.54913e-85
2.09647e-86
-2.03846e-85
1.17101e-85
-3.94578e-84
-1.3949e-84
-5.84923e-84
-2.84363e-84
-1.00645e-83
1.54317e-83
-2.51212e-83
-1.93998e-83
3.05263e-83
-7.68484e-83
2.46727e-81
8.88476e-82
6.74245e-82
5.73575e-81
-5.04402e-82
1.70335e-80
-1.03283e-80
4.56038e-80
-1.87636e-80
5.15845e-80
-1.80392e-80
3.13541e-79
-4.73543e-78
-1.21312e-78
-1.88676e-78
-9.75638e-78
-6.16616e-78
-5.46614e-77
1.30792e-77
-1.21024e-76
5.43443e-77
-1.70328e-76
1.81533e-76
-3.94271e-76
3.15569e-76
-1.86467e-76
3.24505e-76
-2.21458e-76
1.18461e-75
2.20857e-76
1.08568e-75
5.89035e-76
1.07926e-75
5.34587e-77
3.72464e-76
1.80612e-75
4.72912e-76
3.47857e-75
-1.04439e-76
6.84194e-75
-1.21174e-75
1.14069e-74
-2.8462e-75
2.39032e-74
-7.50169e-75
2.36606e-74
-1.01337e-74
1.6464e-74
-3.04095e-75
3.09769e-74
-8.39258e-75
4.55043e-74
-2.0873e-74
9.38713e-74
-1.99946e-73
4.89473e-73
-4.48468e-73
8.16944e-73
-7.75865e-73
1.14842e-72
-9.81667e-73
1.53367e-72
-1.17518e-72
1.37589e-72
-2.12489e-72
3.82356e-72
-3.95605e-72
3.89974e-72
-4.09742e-72
4.78516e-72
-4.23573e-72
4.34808e-72
-4.26027e-72
3.85711e-72
-5.38656e-72
4.28276e-72
-5.57517e-72
5.22654e-72
-5.54703e-72
3.59319e-72
-4.81934e-72
5.99864e-72
-4.14531e-72
7.66753e-72
-5.09044e-72
6.71213e-72
-2.71191e-72
5.35256e-72
2.15432e-72
1.27142e-71
1.06192e-72
2.9297e-72
2.0043e-71
2.83288e-71
1.27762e-71
1.75089e-71
8.03886e-72
1.15738e-71
5.19413e-72
6.39042e-72
5.31627e-72
6.59608e-72
1.1722e-71
8.72626e-72
1.08814e-71
-7.5807e-73
4.93923e-71
1.14323e-72
7.20008e-71
8.95988e-72
6.08747e-71
-1.42795e-72
7.86056e-71
-3.43063e-71
1.14412e-70
2.83958e-71
1.14759e-70
-3.79177e-71
1.61043e-70
7.70764e-71
1.20886e-70
3.89374e-71
9.17073e-71
1.74351e-71
8.08257e-71
5.95809e-72
6.36313e-71
-6.41858e-73
5.34849e-71
-8.46439e-72
9.51937e-71
3.97123e-71
7.6487e-71
2.52351e-72
7.7905e-71
2.11934e-71
6.09572e-71
8.69934e-72
9.47982e-71
3.86976e-71
7.4761e-71
3.01646e-71
5.56014e-71
2.46076e-71
5.79204e-71
2.14866e-71
4.76747e-71
1.41654e-71
4.41014e-71
-1.14111e-71
4.94979e-71
1.45886e-71
4.94765e-71
2.88697e-71
3.56866e-71
1.95738e-71
3.1922e-71
2.05383e-71
2.36837e-71
1.11955e-71
2.34734e-71
1.38741e-71
1.66765e-71
7.30012e-72
2.4479e-71
1.12665e-71
2.00698e-71
6.60995e-72
1.55706e-71
4.53789e-72
1.78891e-71
3.88426e-72
1.85641e-71
5.69299e-72
1.44321e-71
3.05647e-72
1.40536e-71
-2.58988e-72
1.34202e-71
2.15808e-72
1.18012e-71
-7.57445e-73
9.14858e-72
-3.57409e-73
8.76138e-72
1.02731e-73
6.84461e-72
7.22399e-74
5.30235e-72
2.48779e-73
5.04954e-72
8.24809e-73
5.42308e-72
2.06073e-72
4.09466e-72
1.30088e-72
4.4835e-72
1.22726e-72
3.95448e-72
1.31137e-72
2.93692e-72
1.07295e-72
2.28219e-72
5.16129e-73
1.80203e-72
6.83334e-73
1.30176e-72
4.12343e-73
1.11629e-72
3.11844e-73
8.82291e-73
3.02602e-73
6.32387e-73
2.89464e-73
4.50028e-73
2.17953e-73
6.49415e-73
3.05763e-73
-3.23061e-71
-2.39395e-71
1.54395e-69
2.08471e-69
3.9566e-68
9.34273e-68
-5.54951e-64
-7.8064e-65
3.07216e-62
1.72047e-62
-5.28798e-61
-1.3297e-60
5.6878e-64
-2.35417e-60
4.00529e-61
-1.78389e-60
-1.07061e-60
-3.83475e-60
2.04749e-57
4.92823e-58
-5.16828e-55
-1.23626e-55
-4.75405e-54
4.78705e-53
3.49631e-51
3.1524e-51
-4.29266e-50
-6.85856e-50
1.0576e-50
-1.48096e-48
-4.58152e-50
-3.42711e-17
2.1852e-08
1.20904e-08
1.71979e-08
-3.555e-18
-1.06437e-17
-2.31932e-20
6.97312e-22
-4.39089e-20
-1.43293e-16
-7.13722e-17
-2.53546e-16
7.31239e-19
1.10081e-18
1.49191e-14
2.74495e-13
1.79368e-12
5.62287e-12
1.10485e-11
1.55775e-11
1.77822e-11
1.8614e-11
1.86232e-11
1.87285e-11
1.87513e-11
1.82011e-11
1.62383e-11
1.25831e-11
8.43802e-12
4.94858e-12
2.46616e-12
1.07414e-12
3.97584e-13
1.27551e-13
3.64366e-14
8.5013e-15
1.42858e-15
1.39532e-16
-2.30091e-19
-1.13877e-18
-2.19545e-20
5.92762e-21
-8.52889e-23
-1.55191e-23
9.04948e-25
-2.22118e-26
2.43459e-28
7.15234e-30
-2.02085e-31
1.23382e-33
2.49984e-34
-1.28342e-35
1.986e-37
3.56482e-39
-9.51437e-41
-1.26637e-42
-3.8178e-45
1.13818e-46
2.50972e-46
-3.66308e-48
8.88879e-09
7.52454e-09
1.44739e-06
7.24565e-08
1.61441e-08
5.38844e-08
-1.50111e-08
-7.34316e-09
1.56956e-08
4.14279e-09
2.8131e-08
2.71888e-08
1.70237e-08
4.27773e-08
-8.04574e-08
3.3513e-09
-1.12785e-07
-6.5303e-08
-7.62703e-08
-3.05528e-08
5.84486e-08
4.21404e-08
2.30641e-07
2.39486e-07
2.03346e-07
3.90615e-07
-8.53394e-08
3.9706e-07
-5.35699e-07
2.47573e-07
-8.59321e-07
-8.07292e-08
-6.38397e-07
-4.31619e-07
8.47756e-08
4.58476e-08
1.18131e-06
9.78425e-07
2.71404e-06
2.7353e-05
-1.16529e-06
2.23717e-05
-2.30255e-06
-6.63329e-06
2.09222e-05
1.24035e-05
2.87167e-05
3.43018e-05
6.19174e-06
2.36691e-05
-1.19106e-05
-5.91066e-06
1.00223e-05
-2.00791e-06
2.25546e-05
2.31359e-05
2.9797e-06
1.5999e-05
-4.29585e-06
-8.22343e-07
4.07081e-06
1.22158e-06
9.47953e-06
1.00998e-05
6.3231e-06
8.92607e-06
7.94122e-06
9.08074e-06
1.51352e-05
1.61288e-05
1.27734e-05
1.80258e-05
7.43424e-06
4.79903e-06
1.48156e-05
0
-2.27648e-08
4.7786e-08
-1.79312e-08
6.31226e-09
2.12246e-07
-1.46571e-07
-5.17505e-07
8.38759e-07
5.25972e-06
-2.35771e-08
2.29452e-09
-2.71256e-08
-5.34665e-09
3.24158e-09
3.16029e-09
2.51382e-09
3.05841e-09
3.14337e-09
2.85513e-09
-4.38346e-09
1.82633e-08
-6.70535e-09
4.71832e-09
0
0
0
-5.13895e-08
1.36976e-08
-3.45311e-08
1.067e-05
2.45731e-05
5.05211e-06
-1.09604e-08
-3.55704e-09
2.82392e-06
2.61499e-06
-5.49219e-09
-1.11795e-09
1.12704e-24
0
0
-6.34301e-23
2.77534e-19
0
-4.16155e-23
0
0
0
-2.55975e-34
-1.8466e-30
-7.69414e-28
-1.4593e-25
-2.37818e-24
-4.1604e-25
-4.78215e-24
-7.86716e-24
-7.75936e-24
-9.07273e-24
-5.38415e-24
-2.38283e-24
-2.2757e-24
-4.47088e-25
-1.00353e-24
-6.29661e-25
5.24708e-23
-9.77534e-22
-1.07832e-21
-6.03045e-22
-7.01163e-21
6.90133e-21
1.08939e-21
6.3536e-22
-5.78705e-21
-2.19243e-21
4.00298e-21
1.22443e-20
1.51434e-20
2.11478e-20
4.11701e-20
3.28847e-20
1.88554e-20
1.63959e-20
4.59238e-20
3.22281e-20
3.12212e-21
4.1248e-22
-2.16936e-20
-2.49993e-20
-1.18452e-19
-1.01625e-19
-1.18271e-19
-1.10991e-19
-5.17631e-20
-4.69838e-21
3.1738e-20
5.25697e-20
7.93508e-20
4.99619e-20
5.38389e-20
3.50899e-20
1.5273e-20
5.00643e-21
5.9068e-22
-4.24752e-21
-5.70861e-21
-5.36827e-21
-4.55653e-21
-3.76934e-21
-2.21675e-21
-1.24149e-21
-8.0369e-22
-2.11109e-22
-7.6626e-23
4.15432e-23
7.99666e-23
8.48512e-23
6.81152e-23
5.19496e-23
3.02534e-23
1.86273e-23
1.34238e-23
7.13436e-24
3.72588e-24
1.6963e-24
5.21462e-25
2.14453e-25
-8.59592e-26
-9.38298e-26
-1.00935e-25
-1.07437e-25
-7.9542e-26
-5.47712e-26
-3.46302e-26
-2.2143e-26
-1.22957e-26
-7.87641e-27
-4.47212e-27
-1.93444e-27
-1.60473e-27
-7.3766e-26
0
0
0
0
4.05577e-06
1.01361e-15
7.57571e-14
7.98822e-13
3.37453e-12
8.3375e-12
1.35446e-11
1.69191e-11
1.82639e-11
1.86576e-11
1.86604e-11
1.87987e-11
1.8624e-11
1.74881e-11
1.45274e-11
1.05143e-11
6.56629e-12
3.57956e-12
1.65514e-12
6.71313e-13
2.29665e-13
6.89214e-14
1.81282e-14
3.6949e-15
4.94769e-16
2.75638e-17
-2.58091e-18
-2.79873e-19
1.29576e-20
9.86576e-22
-8.06631e-23
1.0184e-24
1.04357e-25
-6.92046e-27
2.25667e-28
-6.97186e-30
1.68889e-31
-4.0142e-33
6.49805e-35
4.16179e-37
-4.65064e-38
2.96865e-40
1.41207e-41
8.19935e-44
0
-4.51544e-09
1.97141e-06
4.12834e-06
-3.01003e-09
0
-2.42921e-09
5.52828e-11
-9.16694e-08
7.29076e-08
1.24507e-07
-4.47757e-07
-2.45464e-07
3.24634e-06
2.2544e-06
-1.49443e-09
3.39359e-09
7.98787e-09
1.54996e-09
-1.91319e-09
-5.08249e-10
2.92581e-09
2.1211e-09
7.32928e-09
5.91386e-09
-6.09902e-10
2.28581e-09
1.4763e-09
0
-3.05628e-24
0
-2.01642e-08
-1.96284e-09
-2.38266e-09
2.23994e-09
-1.8143e-09
4.02345e-07
-6.76799e-07
7.89262e-09
1.04708e-07
-8.0537e-08
-2.48178e-08
-7.51984e-45
-2.57333e-42
-2.34846e-40
5.73361e-39
5.24085e-37
-2.5955e-35
2.88257e-34
1.49183e-32
-9.22817e-31
3.36049e-29
-1.27891e-28
-2.97643e-26
1.71962e-24
-3.53786e-23
-7.3851e-24
1.11582e-20
-7.27988e-20
-1.98076e-18
4.24224e-18
2.6107e-16
2.4156e-15
1.3185e-14
5.39713e-14
1.86786e-13
5.70406e-13
1.48331e-12
3.32909e-12
6.42621e-12
1.07168e-11
1.53176e-11
1.9136e-11
2.0955e-11
2.12638e-11
2.11546e-11
2.11113e-11
2.08614e-11
1.97593e-11
1.66821e-11
1.10021e-11
4.91373e-12
1.07597e-24
2.0049e-26
6.40006e-28
-5.29844e-28
-1.84184e-27
-2.80774e-27
-5.37857e-27
-8.26945e-27
-1.63103e-26
-2.84633e-26
-4.27668e-26
-3.85946e-26
-2.11102e-26
-6.99339e-26
-2.85606e-25
-3.97779e-25
-9.02957e-25
-2.49385e-25
-1.12072e-24
-1.62197e-24
-3.05177e-24
1.85916e-25
1.31793e-24
-1.26599e-23
-1.30949e-23
-1.3869e-23
-5.9086e-23
1.4795e-23
-6.76195e-23
-2.39644e-22
1.18043e-23
8.37028e-23
-1.19425e-22
1.64109e-22
1.91887e-21
4.51936e-21
5.41515e-21
6.68586e-21
5.52844e-21
8.10514e-22
-6.036e-21
-1.05987e-20
-2.28897e-20
-8.19725e-20
-8.61493e-20
-1.25038e-19
-9.50234e-20
-7.47257e-20
-3.4353e-20
1.79867e-19
1.67655e-19
2.93962e-19
2.62574e-19
2.40211e-19
2.35948e-20
5.93641e-20
1.57401e-20
-6.23445e-20
5.50898e-20
4.0399e-20
4.08999e-21
2.87097e-24
2.11931e-24
-1.86915e-20
-3.52766e-20
-4.31104e-20
-5.91506e-20
-4.45727e-20
-4.09767e-20
8.62604e-21
6.07397e-21
7.86361e-22
9.711e-23
3.86282e-20
-5.88468e-21
9.11213e-21
2.19036e-21
-6.05901e-22
4.20884e-22
7.0308e-24
2.13235e-23
1.05428e-23
-1.63117e-23
1.02649e-23
2.07639e-23
1.77533e-24
1.06666e-23
1.64821e-23
2.42903e-09
-4.42115e-09
7.84084e-09
-8.22983e-09
-2.88916e-09
-1.84958e-09
-1.88433e-09
3.55466e-06
2.19089e-06
-3.19213e-07
-2.4483e-07
1.57522e-07
2.35366e-08
1.38266e-08
1.67439e-43
3.10708e-41
9.11442e-40
-1.01328e-37
1.10958e-37
1.62022e-34
-8.91278e-33
3.37274e-31
-1.3641e-29
4.58095e-28
-1.49664e-26
2.79512e-25
-7.04164e-26
-1.41961e-22
2.34046e-21
1.58857e-20
-5.73705e-19
-3.56713e-18
5.9812e-17
8.71817e-16
5.92309e-15
2.78912e-14
1.02658e-13
3.31501e-13
9.37624e-13
2.26717e-12
4.75356e-12
8.42599e-12
1.30521e-11
1.73902e-11
2.02192e-11
2.11984e-11
2.1191e-11
2.111e-11
2.10842e-11
2.04607e-11
1.85478e-11
1.39856e-11
7.78572e-12
0
-3.67132e-16
3.11046e-26
-2.01175e-27
-1.14227e-28
-1.00366e-27
-2.36244e-27
-2.90567e-27
-6.88635e-27
-1.24499e-26
-2.25179e-26
-3.538e-26
-4.06478e-26
-3.33669e-26
-6.89502e-26
-4.12401e-25
-3.345e-25
-8.21302e-26
-1.2508e-24
-9.42323e-25
1.52843e-24
-8.40646e-25
-4.81689e-24
-5.26771e-24
-3.30643e-24
-4.91219e-24
-1.62625e-23
-4.40232e-23
-4.29382e-23
-1.1179e-22
-1.27089e-22
-1.5175e-22
7.37562e-24
-5.4113e-22
5.31333e-22
1.5587e-21
9.8953e-22
3.2943e-21
4.40655e-21
7.65379e-21
2.42511e-21
5.40049e-22
-1.88114e-20
-2.53609e-20
-8.61869e-20
-6.5667e-20
-8.95664e-20
-1.04364e-19
-9.45709e-20
-7.73227e-20
1.61036e-20
2.45081e-19
3.44255e-19
2.71386e-19
3.23587e-19
1.78092e-19
1.07176e-19
3.61454e-20
-4.59466e-20
-4.9794e-20
-6.57664e-20
-4.68471e-20
-3.91842e-20
-2.16698e-20
-7.57604e-20
-3.67634e-20
-2.62514e-20
-1.04943e-20
-1.57711e-20
3.40044e-21
4.52887e-20
3.66693e-20
3.30495e-20
8.6756e-21
2.51148e-20
1.07318e-20
-4.27917e-21
-5.78929e-23
1.78547e-22
2.98168e-23
3.80487e-23
-4.35644e-24
4.68352e-28
-2.30488e-23
-2.08124e-23
-1.96074e-23
2.15488e-24
-1.91337e-23
-7.36395e-24
-7.48787e-25
-1.55181e-23
4.2423e-27
-2.91271e-27
2.38849e-31
7.43165e-29
-1.42459e-32
0
-5.03931e-34
1.3273e-12
1.44589e-13
3.27237e-15
3.227e-14
4.97707e-13
2.75083e-12
2.15603e-08
2.71913e-08
-5.21234e-08
-3.44742e-09
-3.0043e-09
-2.34565e-09
-1.88137e-09
0
0
0
0
0
0
0
0
0
0
0
0
0
0
0
0
0
0
0
0
0
0
0
0
0
0
0
0
0
0
0
0
0
0
0
0
0
0
0
0
0
0
0
0
0
0
0
0
0
0
0
0
0
0
0
0
0
0
0
0
0
0
0
0
0
0
0
0
0
0
0
0
0
0
0
0
0
0
0
0
0
0
0
0
0
0
0
0
0
0
0
0
0
0
0
0
0
0
0
0
0
0
0
0
0
0
0
0
0
0
0
0
0
0
0
0
0
0
0
0
0
0
0
0
0
0
0
0
0
0
0
0
0
0
0
0
0
0
0
0
0
0
0
0
0
0
0
0
0
0
0
0
0
0
0
0
0
0
0
0
0
0
0
0
0
0
0
0
0
0
0
0
0
0
0
0
0
0
0
0
0
0
0
0
0
0
0
0
0
0
9.33264e-22
3.30037e-19
1.55052e-12
-4.11921e-09
0
-5.93373e-32
0
0
0
0
4.11459e-27
-1.44278e-29
1.28358e-27
-2.2096e-22
-3.60794e-19
-5.74194e-25
-2.25556e-22
0
0
2.78371e-23
2.40689e-09
-1.575e-22
-1.34866e-22
8.40993e-23
-2.00732e-22
-3.60785e-22
-4.55745e-23
9.24935e-22
3.69152e-22
-9.88499e-27
7.39489e-25
-2.54897e-22
-2.03489e-22
-1.70041e-22
1.30423e-21
-8.06316e-21
-3.45625e-20
7.47006e-20
2.07213e-19
7.24087e-20
-2.60954e-20
1.14744e-19
2.92296e-19
1.40681e-19
-2.34015e-20
-1.15681e-19
-3.91512e-19
-1.97535e-19
-3.20578e-19
-8.17309e-19
3.63758e-19
6.38081e-23
1.7465e-22
3.31394e-19
2.10894e-19
8.05181e-20
-7.13745e-19
-1.62295e-18
-1.98342e-18
-2.49111e-18
-6.17066e-19
5.93091e-19
2.22513e-18
3.1294e-18
5.30049e-18
3.85345e-18
1.97824e-18
1.78107e-18
5.28491e-19
-1.62803e-19
-8.71678e-19
-8.18679e-19
-8.87763e-19
-9.06099e-19
-5.41233e-19
-3.52905e-19
-1.90654e-19
-1.00956e-19
-7.24996e-21
3.43201e-20
3.89311e-20
4.26089e-20
3.00276e-20
2.56005e-20
1.564e-20
9.21657e-21
5.81977e-21
1.47307e-21
7.42911e-22
1.19463e-22
-3.67641e-22
-3.94522e-22
-3.41417e-22
-2.63357e-22
-2.06553e-22
-1.31242e-22
-8.81637e-23
-6.57076e-23
-3.22807e-23
-2.21416e-23
-8.49561e-24
-4.20307e-24
-2.58162e-24
-9.61603e-25
-2.95175e-25
-8.92342e-26
4.94132e-26
6.26407e-26
8.81548e-26
5.79304e-26
4.36446e-26
3.5451e-26
7.30618e-25
4.7036e-34
-1.02361e-31
0
0
0
0
0
0
0
0
0
0
0
0
0
0
0
0
0
0
0
0
0
0
0
0
0
0
0
0
0
0
0
0
0
0
0
0
0
0
0
0
0
0
0
0
0
0
0
0
0
0
0
0
0
0
0
0
0
0
0
0
0
0
0
0
-5.83455e-116
0
-4.4201e-108
-5.49177e-108