/*--------------------------------*- C++ -*----------------------------------*\
  =========                 |
  \\      /  F ield         | OpenFOAM: The Open Source CFD Toolbox
   \\    /   O peration     | Website:  https://openfoam.org
    \\  /    A nd           | Version:  7
     \\/     M anipulation  |
\*---------------------------------------------------------------------------*/
FoamFile
{
    version     2.0;
    format      ascii;
    class       volScalarField;
    location    "1";
    object      T;
}
// * * * * * * * * * * * * * * * * * * * * * * * * * * * * * * * * * * * * * //

dimensions      [0 0 0 1 0 0 0];

internalField   nonuniform List<scalar> 
10000
(
0.5
0.0669146
-0.0353169
-0.0277115
-0.00789976
0.00112931
0.00220711
0.000963794
3.88563e-05
-0.000206219
-0.000130475
-2.60559e-05
1.76156e-05
1.74837e-05
6.08561e-06
-9.06071e-07
-2.20759e-06
-1.13469e-06
-1.06163e-07
2.47859e-07
1.87024e-07
4.9395e-08
-2.13888e-08
-2.77866e-08
-1.17496e-08
4.15034e-10
3.66278e-09
2.25287e-09
3.96249e-10
-4.00522e-10
-3.77204e-10
-1.28468e-10
2.72483e-11
5.58372e-11
2.85372e-11
2.14233e-12
-7.093e-12
-5.30845e-12
-1.37604e-12
6.83547e-13
8.64619e-13
3.65828e-13
-1.85479e-14
-1.22707e-13
-7.57077e-14
-1.30586e-14
1.42867e-14
1.34536e-14
4.59873e-15
-1.03633e-15
-2.09111e-15
-1.07652e-15
-7.90588e-17
2.75733e-16
2.07306e-16
5.32288e-17
-2.8187e-17
-3.45945e-17
-1.31346e-17
3.69337e-18
8.415e-18
5.95658e-18
2.03559e-18
-7.83435e-19
-2.26055e-18
-2.81518e-18
-2.73002e-18
-2.13582e-18
-1.19977e-18
-1.84532e-19
6.35721e-19
1.08628e-18
1.14208e-18
9.026e-19
5.24608e-19
1.54426e-19
-1.13943e-19
-2.489e-19
-2.67695e-19
-2.12709e-19
-1.29224e-19
-5.12296e-20
3.51305e-21
3.14699e-20
3.79802e-20
3.16824e-20
2.0531e-20
9.88784e-21
2.28857e-21
-1.85265e-21
-3.27614e-21
-3.06928e-21
-2.17861e-21
-1.22055e-21
-4.88849e-22
-5.06942e-23
1.45216e-22
1.86909e-22
1.55818e-22
8.63189e-23
0.933085
0.5
0.14482
-0.0139075
-0.0411718
-0.0230289
-0.00507433
0.00215701
0.00250723
0.00101071
-9.38734e-08
-0.000255324
-0.000158213
-3.18213e-05
2.20241e-05
2.24005e-05
8.17946e-06
-9.48178e-07
-2.86443e-06
-1.56602e-06
-2.00131e-07
3.13491e-07
2.58847e-07
7.77035e-08
-2.39625e-08
-3.79444e-08
-1.77304e-08
-5.20299e-10
4.83208e-09
3.30976e-09
7.47241e-10
-4.84999e-10
-5.38962e-10
-2.10525e-10
2.14979e-11
7.6803e-11
4.4227e-11
6.23631e-12
-9.12446e-12
-7.90475e-12
-2.489e-12
7.31469e-13
1.23561e-12
5.98792e-13
2.37355e-14
-1.6565e-13
-1.17333e-13
-2.7735e-14
1.72277e-14
1.99223e-14
8.02538e-15
-7.28497e-16
-2.93696e-15
-1.73653e-15
-2.60641e-16
3.55735e-16
3.13037e-16
9.37647e-17
-3.98725e-17
-6.00624e-17
-2.90719e-17
1.8545e-18
1.63061e-17
1.80721e-17
1.43628e-17
9.1561e-18
3.72048e-18
-1.33297e-18
-5.18928e-18
-7.10806e-18
-6.91017e-18
-5.09238e-18
-2.55195e-18
-1.79148e-19
1.44279e-18
2.13416e-18
2.04261e-18
1.48387e-18
7.85665e-19
1.86426e-19
-1.9913e-19
-3.62808e-19
-3.60565e-19
-2.68769e-19
-1.53376e-19
-5.59399e-20
6.75526e-21
3.55948e-20
4.02448e-20
3.20446e-20
1.9961e-20
9.29328e-21
2.11434e-21
-1.58514e-21
-2.76273e-21
-2.53252e-21
-1.76502e-21
-9.76883e-22
-4.11257e-22
2.31561e-23
1.03532
0.85518
0.5
0.182448
0.00830364
-0.0419281
-0.032441
-0.0120093
3.84408e-05
0.00307766
0.00201936
0.000522644
-0.000189734
-0.000261936
-0.000118925
-6.07707e-06
2.86043e-05
2.02421e-05
5.19525e-06
-2.29056e-06
-2.95623e-06
-1.27806e-06
8.46554e-09
3.71768e-07
2.40892e-07
5.03709e-08
-3.68802e-08
-3.89006e-08
-1.47958e-08
1.67178e-09
5.45504e-09
3.1046e-09
4.35545e-10
-6.33136e-10
-5.48229e-10
-1.74177e-10
4.83609e-11
8.41877e-11
4.13499e-11
2.16017e-12
-1.1009e-11
-7.96972e-12
-1.97741e-12
1.09386e-12
1.32734e-12
5.52765e-13
-3.45311e-14
-1.91111e-13
-1.17039e-13
-1.99022e-14
2.24173e-14
2.10629e-14
7.23121e-15
-1.60413e-15
-3.27938e-15
-1.692e-15
-1.17157e-16
4.44272e-16
3.27321e-16
6.68365e-17
-7.80399e-17
-9.55495e-17
-5.71573e-17
-1.61837e-17
1.0476e-17
2.46399e-17
3.0478e-17
2.96296e-17
2.29113e-17
1.23512e-17
1.18618e-18
-7.47062e-18
-1.18676e-17
-1.19878e-17
-9.10601e-18
-4.98397e-18
-1.15182e-18
1.48515e-18
2.69405e-18
2.72995e-18
2.07008e-18
1.18521e-18
4.06236e-19
-1.10772e-19
-3.52087e-19
-3.85709e-19
-3.04042e-19
-1.86049e-19
-8.14009e-20
-1.0961e-20
2.45327e-20
3.43008e-20
2.96969e-20
1.98687e-20
1.03722e-20
3.57763e-21
-2.25932e-22
-1.73903e-21
-1.90278e-21
-1.32751e-21
1.02771
1.01391
0.817552
0.5
0.206389
0.0268058
-0.0388677
-0.0384381
-0.0184166
-0.00302402
0.00284105
0.00282245
0.00118552
4.2633e-05
-0.000296282
-0.000211922
-6.02234e-05
1.88442e-05
2.95095e-05
1.43558e-05
1.17969e-06
-3.31264e-06
-2.541e-06
-7.3481e-07
2.46588e-07
3.7721e-07
1.7883e-07
8.57306e-09
-4.67553e-08
-3.3615e-08
-8.56666e-09
4.24374e-09
5.36576e-09
2.31171e-09
-5.87231e-11
-7.29434e-10
-4.68781e-10
-9.40045e-11
7.80718e-11
8.04024e-11
3.01652e-11
-4.11808e-12
-1.18724e-11
-6.69116e-12
-8.75703e-13
1.44559e-12
1.23383e-12
3.86154e-13
-1.1735e-13
-1.96446e-13
-9.58347e-14
-4.20008e-15
2.6504e-14
1.90585e-14
4.65991e-15
-2.71043e-15
-3.22321e-15
-1.28906e-15
1.7254e-16
5.50135e-16
3.31705e-16
4.00139e-17
-1.14604e-16
-1.43702e-16
-1.15812e-16
-7.45721e-17
-3.35971e-17
4.11756e-18
3.43056e-17
5.14042e-17
5.28078e-17
4.10199e-17
2.23188e-17
3.69279e-18
-9.80725e-18
-1.62008e-17
-1.62348e-17
-1.22193e-17
-6.76066e-18
-1.87004e-18
1.40036e-18
2.88013e-18
2.96498e-18
2.26105e-18
1.3184e-18
4.98682e-19
-4.11126e-20
-2.96656e-19
-3.43689e-19
-2.76979e-19
-1.73857e-19
-8.12551e-20
-1.82906e-20
1.43827e-20
2.48095e-20
2.27027e-20
1.57793e-20
8.66925e-21
3.57349e-21
-3.25593e-22
1.0079
1.04117
0.991696
0.793611
0.5
0.223365
0.042154
-0.0343031
-0.0421139
-0.0239644
-0.00647534
0.00197761
0.00332499
0.00186777
0.000400612
-0.000245072
-0.000285991
-0.000129611
-8.12739e-06
3.15022e-05
2.39228e-05
7.25577e-06
-1.97863e-06
-3.44893e-06
-1.76137e-06
-1.8454e-07
3.9124e-07
3.18273e-07
9.93709e-08
-2.70434e-08
-4.76358e-08
-2.40385e-08
-2.00424e-09
5.81838e-09
4.51192e-09
1.29237e-09
-4.84176e-10
-7.13816e-10
-3.342e-10
-9.51053e-12
9.45107e-11
6.64246e-11
1.60473e-11
-9.35071e-12
-1.11618e-11
-4.66525e-12
2.5917e-13
1.59619e-12
9.95063e-13
1.82173e-13
-1.81623e-13
-1.78035e-13
-6.4246e-14
1.12992e-14
2.72787e-14
1.48425e-14
1.55978e-15
-3.5348e-15
-2.82829e-15
-7.27748e-16
5.08025e-16
6.97893e-16
4.1288e-16
1.03986e-16
-8.21021e-17
-1.65666e-16
-1.91604e-16
-1.7998e-16
-1.36504e-16
-7.11536e-17
-2.2281e-18
5.11704e-17
7.77122e-17
7.70464e-17
5.73216e-17
2.99881e-17
5.01182e-18
-1.17758e-17
-1.90028e-17
-1.85155e-17
-1.3589e-17
-7.39438e-18
-2.11621e-18
1.26322e-18
2.72357e-18
2.78203e-18
2.09836e-18
1.21926e-18
4.76645e-19
-1.41128e-21
-2.25034e-19
-2.69121e-19
-2.18434e-19
-1.3835e-19
-6.67323e-20
-1.81831e-20
7.24741e-21
1.59233e-20
1.53733e-20
9.70341e-21
0.998871
1.02303
1.04193
0.973194
0.776635
0.5
0.236308
0.0551561
-0.0291433
-0.0442026
-0.0286476
-0.0100134
0.000663016
0.00351519
0.00249279
0.000838178
-0.000110139
-0.000325109
-0.00020245
-4.98925e-05
2.37007e-05
3.12705e-05
1.49634e-05
1.26022e-06
-3.52123e-06
-2.80623e-06
-8.96015e-07
2.13495e-07
4.11962e-07
2.18731e-07
2.6977e-08
-4.67862e-08
-3.99564e-08
-1.32132e-08
2.98683e-09
5.99819e-09
3.17653e-09
3.49637e-10
-7.21182e-10
-5.94782e-10
-1.85006e-10
5.48484e-11
9.32947e-11
4.65282e-11
3.12953e-12
-1.20509e-11
-9.11194e-12
-2.48921e-12
1.0995e-12
1.50542e-12
6.82055e-13
1.86285e-16
-2.09041e-13
-1.41445e-13
-3.14524e-14
2.21644e-14
2.45367e-14
9.56579e-15
-1.31705e-15
-4.01488e-15
-2.36699e-15
-2.72523e-16
7.6506e-16
8.90112e-16
6.44975e-16
3.6014e-16
1.22193e-16
-7.25778e-17
-2.19267e-16
-2.95461e-16
-2.88631e-16
-2.12924e-16
-1.03587e-16
4.15247e-19
7.17683e-17
1.01124e-16
9.46391e-17
6.68252e-17
3.30896e-17
4.71584e-18
-1.29382e-17
-1.96814e-17
-1.84366e-17
-1.30797e-17
-6.90452e-18
-1.93096e-18
1.09547e-18
2.32231e-18
2.32121e-18
1.71753e-18
9.85113e-19
3.88258e-19
1.4792e-20
-1.56109e-19
-1.89972e-19
-1.54182e-19
-9.78663e-20
-4.79276e-20
-1.52493e-20
7.26379e-21
0.997793
1.00507
1.03244
1.03887
0.957846
0.763692
0.5
0.246668
0.0663827
-0.0238073
-0.0451887
-0.0325522
-0.0134733
-0.000959178
0.00341734
0.00301639
0.00131432
9.733e-05
-0.000320961
-0.000268331
-0.000102053
5.40097e-06
3.42592e-05
2.29965e-05
6.2179e-06
-2.43292e-06
-3.56994e-06
-1.78399e-06
-1.83405e-07
4.05355e-07
3.37003e-07
1.12392e-07
-2.33436e-08
-4.9923e-08
-2.74106e-08
-3.82702e-09
5.6432e-09
5.03276e-09
1.74445e-09
-3.29807e-10
-7.55153e-10
-4.1639e-10
-5.49403e-11
8.92642e-11
7.76866e-11
2.5765e-11
-6.16115e-12
-1.20783e-11
-6.3439e-12
-6.20526e-13
1.52282e-12
1.227e-12
3.67229e-13
-1.27256e-13
-1.99326e-13
-9.6101e-14
-3.70829e-15
2.71571e-14
1.94016e-14
4.35566e-15
-3.62738e-15
-4.39271e-15
-2.2656e-15
-2.91261e-16
7.03708e-16
1.00434e-15
9.97964e-16
8.49016e-16
5.87241e-16
2.47707e-16
-8.84682e-17
-3.31692e-16
-4.31584e-16
-3.94452e-16
-2.68801e-16
-1.16651e-16
1.15565e-17
8.94907e-17
1.14776e-16
1.00963e-16
6.73992e-17
3.11957e-17
3.09358e-18
-1.30181e-17
-1.82903e-17
-1.63559e-17
-1.11574e-17
-5.66808e-18
-1.49841e-18
9.03903e-19
1.80598e-18
1.75233e-18
1.26683e-18
7.1416e-19
2.80611e-19
1.73829e-20
-1.00032e-19
-1.22648e-19
-1.00546e-19
-5.33976e-20
0.999036
0.997843
1.01201
1.03844
1.0343
0.944844
0.753332
0.5
0.255249
0.0762288
-0.0184971
-0.0453946
-0.0357829
-0.0167686
-0.00277966
0.00306919
0.00341666
0.00179625
0.000362307
-0.000271062
-0.000319196
-0.000159502
-2.26983e-05
3.14482e-05
3.00039e-05
1.24139e-05
-5.01571e-08
-3.78026e-06
-2.69448e-06
-7.81473e-07
2.58291e-07
4.1876e-07
2.17163e-07
2.5954e-08
-4.75585e-08
-4.11123e-08
-1.42496e-08
2.56399e-09
6.11199e-09
3.4591e-09
5.34283e-10
-6.84858e-10
-6.35995e-10
-2.29591e-10
3.61861e-11
9.51508e-11
5.43646e-11
8.20056e-12
-1.10438e-11
-1.00961e-11
-3.53099e-12
6.84029e-13
1.55492e-12
8.53822e-13
1.05148e-13
-1.91097e-13
-1.62502e-13
-5.11985e-14
1.6114e-14
2.7436e-14
1.38082e-14
3.59563e-16
-5.11822e-15
-4.91019e-15
-2.92844e-15
-1.19999e-15
-5.34665e-17
7.29249e-16
1.25279e-15
1.45872e-15
1.30207e-15
8.5975e-16
3.06443e-16
-1.74561e-16
-4.66588e-16
-5.4494e-16
-4.57764e-16
-2.86391e-16
-1.0799e-16
2.67969e-17
9.92258e-17
1.15617e-16
9.53985e-17
5.99657e-17
2.55951e-17
9.56768e-19
-1.19741e-17
-1.54008e-17
-1.30975e-17
-8.56676e-18
-4.16798e-18
-1.01611e-18
7.00435e-19
1.29109e-18
1.21131e-18
8.54193e-19
4.72584e-19
1.83619e-19
1.73135e-20
-7.6812e-20
0.999961
0.997493
0.999962
1.01842
1.04211
1.02914
0.933617
0.744751
0.5
0.262537
0.0849758
-0.0133115
-0.0450396
-0.0384394
-0.0198576
-0.00471768
0.00251112
0.00368607
0.00225945
0.000669094
-0.000176905
-0.000349474
-0.000217239
-5.89605e-05
2.2113e-05
3.47796e-05
1.91931e-05
3.57793e-06
-3.2318e-06
-3.45354e-06
-1.52336e-06
-4.80473e-08
4.29811e-07
3.2249e-07
9.90302e-08
-2.79562e-08
-5.00298e-08
-2.68177e-08
-3.61799e-09
5.65286e-09
5.07188e-09
1.82066e-09
-2.81011e-10
-7.53962e-10
-4.38924e-10
-7.3872e-11
8.34855e-11
8.06107e-11
3.01779e-11
-3.91963e-12
-1.2003e-11
-7.08384e-12
-1.18851e-12
1.36548e-12
1.30715e-12
4.77456e-13
-7.60771e-14
-1.99896e-13
-1.1278e-13
-1.36074e-14
2.80082e-14
2.55928e-14
1.00995e-14
-1.09061e-15
-5.21993e-15
-5.40407e-15
-4.42557e-15
-3.24798e-15
-1.88839e-15
-3.72402e-16
1.00433e-15
1.8817e-15
2.08451e-15
1.69987e-15
9.91532e-16
2.55207e-16
-2.94993e-16
-5.71604e-16
-5.98309e-16
-4.62467e-16
-2.6457e-16
-8.29304e-17
4.07485e-17
9.85965e-17
1.04551e-16
8.07962e-17
4.7634e-17
1.84633e-17
-8.51636e-19
-1.00571e-17
-1.18339e-17
-9.56074e-18
-5.98977e-18
-2.78319e-18
-6.1198e-19
5.05376e-19
8.54091e-19
7.72524e-19
5.41073e-19
2.25517e-19
1.00021
0.998989
0.996922
1.00302
1.02396
1.0442
1.02381
0.923771
0.737463
0.5
0.268847
0.0928295
-0.00829713
-0.0442768
-0.0406094
-0.0227243
-0.00671456
0.00178129
0.00382595
0.00268654
0.001003
-4.24486e-05
-0.000355818
-0.000270828
-0.000101219
6.15712e-06
3.63676e-05
2.58328e-05
8.25193e-06
-1.80508e-06
-3.89324e-06
-2.32337e-06
-5.09073e-07
3.42821e-07
4.06035e-07
1.88693e-07
1.12936e-08
-4.98814e-08
-3.9188e-08
-1.2636e-08
3.05689e-09
6.05568e-09
3.34644e-09
4.9976e-10
-6.78139e-10
-6.30924e-10
-2.33975e-10
3.05383e-11
9.35454e-11
5.59397e-11
1.01487e-11
-1.02094e-11
-1.02429e-11
-3.96402e-12
4.15912e-13
1.5145e-12
9.18639e-13
1.63786e-13
-1.74375e-13
-1.72875e-13
-6.45569e-14
1.22717e-14
3.33548e-14
2.43459e-14
1.04434e-14
1.49201e-15
-2.8163e-15
-4.99578e-15
-6.16999e-15
-6.20784e-15
-4.91313e-15
-2.64828e-15
-1.96474e-16
1.68357e-15
2.58916e-15
2.54233e-15
1.85758e-15
9.4098e-16
1.26763e-16
-4.02226e-16
-6.14435e-16
-5.8091e-16
-4.13334e-16
-2.14343e-16
-5.11419e-17
4.88412e-17
8.82911e-17
8.55175e-17
6.18642e-17
3.40923e-17
1.17775e-17
-1.87488e-18
-7.72398e-18
-8.35062e-18
-6.41441e-18
-3.85004e-18
-1.70639e-18
-3.28887e-19
3.2995e-19
5.63366e-19
1.00013
1
0.997981
0.997159
1.00648
1.02865
1.04519
1.0185
0.915024
0.731153
0.5
0.274394
0.0999444
-0.00347339
-0.0432147
-0.0423674
-0.025367
-0.00872811
0.000913719
0.00384278
0.00306586
0.00135109
0.000126998
-0.000336704
-0.000316604
-0.000147094
-1.60181e-05
3.41025e-05
3.16251e-05
1.36644e-05
5.30393e-07
-3.87081e-06
-3.0801e-06
-1.09846e-06
1.40984e-07
4.45232e-07
2.83651e-07
6.95991e-08
-3.71387e-08
-4.8494e-08
-2.35641e-08
-1.97186e-09
5.87407e-09
4.81586e-09
1.62131e-09
-3.35443e-10
-7.40108e-10
-4.20873e-10
-6.86129e-11
8.18993e-11
7.89866e-11
3.02022e-11
-3.26625e-12
-1.16563e-11
-7.15046e-12
-1.38288e-12
1.25485e-12
1.30376e-12
5.14002e-13
-5.51393e-14
-2.06761e-13
-1.33106e-13
-3.03389e-14
2.33237e-14
3.29053e-14
2.49655e-14
1.58991e-14
9.25531e-15
3.51655e-15
-2.15174e-15
-6.82634e-15
-9.16632e-15
-8.69574e-15
-6.07477e-15
-2.59835e-15
4.84969e-16
2.42085e-15
3.05193e-15
2.66624e-15
1.74667e-15
7.49114e-16
-2.58831e-17
-4.62028e-16
-5.87011e-16
-5.04168e-16
-3.29654e-16
-1.52828e-16
-2.23363e-17
4.91589e-17
7.15915e-17
6.36707e-17
4.31414e-17
2.2157e-17
6.65237e-18
-2.11492e-18
-5.44449e-18
-5.44524e-18
-3.9767e-18
-2.34458e-18
-6.29548e-19
1.00003
1.00026
0.999477
0.997178
0.998022
1.01001
1.03255
1.04539
1.01331
0.90717
0.725606
0.5
0.279329
0.106439
0.00115474
-0.041932
-0.0437761
-0.0277924
-0.0107283
-6.2262e-05
0.00374582
0.00339021
0.00170247
0.000325544
-0.000292008
-0.000351728
-0.000194215
-4.36511e-05
2.76072e-05
3.59344e-05
1.94425e-05
3.72374e-06
-3.28056e-06
-3.68834e-06
-1.77217e-06
-1.80246e-07
4.20168e-07
3.69979e-07
1.43349e-07
-9.59764e-09
-5.17625e-08
-3.49115e-08
-9.34237e-09
4.0785e-09
5.86106e-09
2.9627e-09
3.09636e-10
-6.99165e-10
-5.96929e-10
-2.08957e-10
3.67311e-11
9.11209e-11
5.32517e-11
9.37657e-12
-9.93893e-12
-9.93146e-12
-3.89868e-12
3.58377e-13
1.47409e-12
9.24625e-13
1.81722e-13
-1.75924e-13
-1.98617e-13
-1.01289e-13
-1.95627e-14
1.64837e-14
2.51471e-14
2.59325e-14
2.53544e-14
2.21002e-14
1.47416e-14
4.74393e-15
-4.64472e-15
-1.06284e-14
-1.21873e-14
-1.00769e-14
-6.0277e-15
-1.82335e-15
1.31295e-15
2.91218e-15
3.12773e-15
2.45151e-15
1.43289e-15
4.91599e-16
-1.52757e-16
-4.60004e-16
-5.02586e-16
-3.93788e-16
-2.35929e-16
-9.57904e-17
-2.3722e-18
4.29207e-17
5.28467e-17
4.34156e-17
2.759e-17
1.31668e-17
3.30972e-18
-1.84342e-18
-3.54511e-18
-3.18277e-18
0.999982
1.00016
1.00019
0.998814
0.996675
0.999337
1.01347
1.03578
1.04504
1.0083
0.900056
0.720671
0.5
0.283765
0.112406
0.00559006
-0.0404869
-0.0448875
-0.0300111
-0.0126941
-0.0011218
0.00354557
0.00365566
0.00204819
0.000547226
-0.000222631
-0.000374148
-0.000240368
-7.5744e-05
1.67653e-05
3.82309e-05
2.51857e-05
7.65639e-06
-2.05941e-06
-4.049e-06
-2.47373e-06
-6.13084e-07
3.15741e-07
4.32726e-07
2.26279e-07
3.32724e-08
-4.63187e-08
-4.47952e-08
-1.85529e-08
3.90474e-10
6.09469e-09
4.32722e-09
1.2425e-09
-4.51538e-10
-7.1491e-10
-3.74581e-10
-4.61528e-11
8.38814e-11
7.44792e-11
2.70143e-11
-4.00458e-12
-1.12888e-11
-6.75945e-12
-1.24626e-12
1.25735e-12
1.3042e-12
5.42118e-13
-2.87191e-14
-2.10734e-13
-1.72163e-13
-9.02415e-14
-3.71104e-14
-1.12153e-14
6.10695e-15
2.2625e-14
3.49496e-14
3.78305e-14
3.0385e-14
1.64739e-14
1.81527e-15
-8.99874e-15
-1.39725e-14
-1.35949e-14
-9.82897e-15
-4.95097e-15
-7.19457e-16
1.9694e-15
3.01668e-15
2.83058e-15
1.99604e-15
1.02712e-15
2.46675e-16
-2.22881e-16
-4.03629e-16
-3.88033e-16
-2.7836e-16
-1.52217e-16
-5.23904e-17
7.82333e-18
3.32046e-17
3.57281e-17
2.7286e-17
1.62517e-17
7.42779e-18
-1.84333e-20
0.999983
1.00003
1.00026
0.999957
0.998132
0.996485
1.00096
1.01677
1.03844
1.04428
1.00347
0.893561
0.716235
0.5
0.287787
0.11792
0.00983944
-0.0389223
-0.0457452
-0.0320359
-0.0146108
-0.00224409
0.00325288
0.00386074
0.00238115
0.000786327
-0.00013018
-0.000382519
-0.00028358
-0.000111168
1.68149e-06
3.81078e-05
3.04963e-05
1.21584e-05
-1.87578e-07
-4.07657e-06
-3.1397e-06
-1.13857e-06
1.23036e-07
4.5745e-07
3.10103e-07
9.02055e-08
-3.01281e-08
-5.11535e-08
-2.87229e-08
-5.24116e-09
5.16548e-09
5.46299e-09
2.39337e-09
3.71734e-11
-7.24697e-10
-5.39547e-10
-1.6443e-10
5.01783e-11
8.78253e-11
4.75495e-11
6.6302e-12
-1.0177e-11
-9.38047e-12
-3.50322e-12
4.80713e-13
1.50024e-12
9.78909e-13
2.71314e-13
-9.84326e-14
-1.7319e-13
-1.37384e-13
-1.00748e-13
-8.11813e-14
-6.08041e-14
-2.88931e-14
8.60848e-15
3.86354e-14
5.20199e-14
4.79391e-14
3.21843e-14
1.28765e-14
-3.27154e-15
-1.27846e-14
-1.54139e-14
-1.30309e-14
-8.24799e-15
-3.33675e-15
3.18425e-16
2.26931e-15
2.74256e-15
2.28129e-15
1.44518e-15
6.39056e-16
6.67443e-17
-2.32632e-16
-3.15915e-16
-2.71805e-16
-1.79067e-16
-8.8873e-17
-2.44782e-17
1.06461e-17
2.30954e-17
2.25074e-17
1.40212e-17
0.999994
0.999978
1.00012
1.0003
0.999599
0.997507
0.996583
1.00278
1.01986
1.04061
1.04321
0.998845
0.887594
0.712213
0.5
0.291459
0.123039
0.0139117
-0.0372711
-0.0463857
-0.0338802
-0.0164687
-0.00341188
0.00287833
0.00400571
0.00269582
0.00103755
-1.67195e-05
-0.000376094
-0.000322165
-0.000148743
-1.73631e-05
3.52842e-05
3.50019e-05
1.7025e-05
2.3144e-06
-3.70406e-06
-3.70485e-06
-1.72852e-06
-1.6006e-07
4.31511e-07
3.8528e-07
1.58213e-07
-2.04541e-09
-5.19695e-08
-3.86687e-08
-1.26123e-08
2.80887e-09
6.09133e-09
3.63991e-09
7.70598e-10
-5.80807e-10
-6.70428e-10
-3.08429e-10
-1.41543e-11
8.68635e-11
6.76044e-11
2.16391e-11
-5.69626e-12
-1.10045e-11
-6.19462e-12
-1.00023e-12
1.28369e-12
1.33701e-12
6.75831e-13
1.69904e-13
-2.87867e-14
-6.96837e-14
-8.84782e-14
-1.20219e-13
-1.41517e-13
-1.2859e-13
-8.20949e-14
-2.16624e-14
3.00278e-14
5.89896e-14
6.31372e-14
4.91856e-14
2.72781e-14
6.40161e-15
-8.05594e-15
-1.4623e-14
-1.46793e-14
-1.09097e-14
-5.97074e-15
-1.71424e-15
1.01467e-15
2.18294e-15
2.21246e-15
1.64617e-15
9.32129e-16
3.38912e-16
-3.39255e-17
-1.99684e-16
-2.22863e-16
-1.73828e-16
-1.05432e-16
-4.69527e-17
-9.94833e-18
1.37914e-17
1
0.999978
1.00001
1.00021
1.00025
0.999162
0.996984
0.996931
1.00472
1.02272
1.04237
1.04193
0.99441
0.88208
0.708541
0.5
0.294834
0.127814
0.0178165
-0.035558
-0.0468395
-0.0355575
-0.0182615
-0.00461091
0.00243196
0.00409206
0.00298801
0.00129613
0.000115423
-0.000354624
-0.00035473
-0.000187304
-3.99542e-05
2.95993e-05
3.83716e-05
2.20318e-05
5.39077e-06
-2.88567e-06
-4.10654e-06
-2.34794e-06
-5.28881e-07
3.45069e-07
4.41811e-07
2.32812e-07
3.80405e-08
-4.54776e-08
-4.70091e-08
-2.12648e-08
-1.11284e-09
5.93844e-09
4.81653e-09
1.71675e-09
-2.4964e-10
-7.30079e-10
-4.6134e-10
-1.09147e-10
6.57946e-11
8.28444e-11
3.97974e-11
2.76759e-12
-1.07235e-11
-8.859e-12
-3.20058e-12
4.02972e-13
1.33832e-12
9.79646e-13
4.84807e-13
2.40077e-13
1.64153e-13
1.00396e-13
-7.55706e-15
-1.25645e-13
-1.99751e-13
-2.04261e-13
-1.50337e-13
-6.98055e-14
4.96612e-15
5.36924e-14
7.11637e-14
6.35764e-14
4.23433e-14
1.85677e-14
-2.34561e-16
-1.09891e-14
-1.41862e-14
-1.22546e-14
-8.0161e-15
-3.68079e-15
-4.7154e-16
1.28109e-15
1.81574e-15
1.59686e-15
1.06854e-15
5.35561e-16
1.45995e-16
-7.04135e-17
-1.48538e-16
-1.42792e-16
-1.03955e-16
-4.47661e-17
1
0.999992
0.999971
1.00006
1.00029
1.00011
0.998686
0.996583
0.997489
1.00671
1.02537
1.04378
1.04049
0.990161
0.876961
0.705166
0.5
0.297951
0.132283
0.0215636
-0.0338022
-0.0471324
-0.0370806
-0.0199854
-0.00582946
0.00192307
0.00412207
0.00325471
0.00155785
0.0002638
-0.000318255
-0.000380175
-0.000225738
-6.55836e-05
2.10018e-05
4.03256e-05
2.69479e-05
8.95689e-06
-1.59756e-06
-4.28826e-06
-2.9575e-06
-9.72493e-07
1.91739e-07
4.69999e-07
3.0836e-07
8.91624e-08
-3.03359e-08
-5.22847e-08
-3.05132e-08
-6.58413e-09
4.7668e-09
5.72878e-09
2.80729e-09
2.84442e-10
-6.82106e-10
-6.00437e-10
-2.30016e-10
2.03705e-11
8.8395e-11
5.89488e-11
1.53884e-11
-7.52319e-12
-1.06792e-11
-5.80577e-12
-1.21892e-12
7.11864e-13
8.58151e-13
5.45726e-13
4.03578e-13
4.35676e-13
4.49305e-13
3.36602e-13
1.25472e-13
-9.09641e-14
-2.33089e-13
-2.71611e-13
-2.24002e-13
-1.31619e-13
-3.63517e-14
3.373e-14
6.83371e-14
7.14836e-14
5.47597e-14
3.08497e-14
9.28998e-15
-5.07392e-15
-1.15389e-14
-1.19521e-14
-9.03007e-15
-5.16261e-15
-1.8648e-15
2.48148e-16
1.2011e-15
1.33298e-15
1.03894e-15
6.2664e-16
2.73152e-16
4.28432e-17
-6.76745e-17
-1.03379e-16
1
1
0.99998
0.999981
1.00013
1.00033
0.999903
0.998204
0.996314
0.998219
1.00873
1.02779
1.04489
1.03892
0.986088
0.872186
0.702049
0.5
0.300845
0.136483
0.0251626
-0.0320184
-0.0472861
-0.0384617
-0.0216386
-0.00705794
0.0013602
0.00409858
0.0034938
0.00181902
0.00042595
-0.000267441
-0.000397667
-0.000263018
-9.36835e-05
9.53536e-06
4.06398e-05
3.15468e-05
1.2906e-05
1.62694e-07
-4.20216e-06
-3.51595e-06
-1.47456e-06
-3.10581e-08
4.61102e-07
3.78446e-07
1.49318e-07
-5.75342e-09
-5.308e-08
-3.94909e-08
-1.34249e-08
2.40272e-09
6.171e-09
3.94078e-09
1.0149e-09
-4.95421e-10
-6.9906e-10
-3.6705e-10
-5.13746e-11
7.92436e-11
7.59211e-11
3.15976e-11
-5.11331e-13
-1.04992e-11
-7.98676e-12
-3.18227e-12
-4.8441e-13
1.29679e-13
1.48635e-14
5.26994e-14
3.57547e-13
6.74628e-13
7.78504e-13
6.26753e-13
3.20781e-13
3.19212e-15
-2.20833e-13
-3.12328e-13
-2.88779e-13
-1.97399e-13
-8.87089e-14
5.74832e-16
5.35254e-14
7.03897e-14
6.16465e-14
4.06884e-14
1.86183e-14
1.94893e-15
-7.28825e-15
-1.01082e-14
-8.85808e-15
-5.89591e-15
-2.89545e-15
-6.96739e-16
5.17623e-16
9.37673e-16
8.76587e-16
6.12325e-16
3.4178e-16
6.72769e-17
1
1
0.999995
0.99997
1.00001
1.0002
1.00032
0.999638
0.997741
0.996174
0.999086
1.01073
1.03001
1.04575
1.03727
0.982184
0.867717
0.699155
0.5
0.303542
0.14044
0.0286225
-0.0302183
-0.0473191
-0.0397121
-0.0232206
-0.00828853
0.000751047
0.00402473
0.00370393
0.00207651
0.00059947
-0.000202868
-0.000406618
-0.000298222
-0.000123655
-4.67632e-06
3.91468e-05
3.56146e-05
1.71156e-05
2.37783e-06
-3.81077e-06
-3.98233e-06
-2.0144e-06
-3.22032e-07
4.07864e-07
4.36299e-07
2.15588e-07
2.8432e-08
-4.81352e-08
-4.72105e-08
-2.12934e-08
-1.24186e-09
5.94507e-09
4.98925e-09
1.91102e-09
-1.48279e-10
-7.28967e-10
-5.05896e-10
-1.48503e-10
5.06872e-11
8.64175e-11
4.95718e-11
1.04901e-11
-7.24456e-12
-8.53849e-12
-4.47218e-12
-1.52238e-12
-8.06467e-13
-1.05763e-12
-1.0778e-12
-5.46621e-13
2.37148e-13
8.57921e-13
1.08858e-12
9.40317e-13
5.6963e-13
1.61037e-13
-1.5149e-13
-3.11609e-13
-3.29748e-13
-2.54508e-13
-1.43081e-13
-4.05874e-14
2.86693e-14
5.99811e-14
6.14576e-14
4.61304e-14
2.59344e-14
8.67975e-15
-2.34278e-15
-7.19317e-15
-7.64631e-15
-5.82792e-15
-3.41812e-15
-1.39024e-15
-9.57263e-17
5.08458e-16
6.43327e-16
4.80157e-16
1
1
1
0.999986
0.999968
1.00005
1.00027
1.00027
0.999331
0.997313
0.996157
1.00006
1.01269
1.03204
1.04639
1.03556
0.978436
0.863517
0.696458
0.5
0.306067
0.144179
0.0319521
-0.0284107
-0.0472471
-0.0408424
-0.0247318
-0.00951485
0.000102559
0.00390383
0.00388439
0.00232765
0.000782063
-0.000125388
-0.000406654
-0.000330536
-0.00015489
-2.1445e-05
3.57346e-05
3.89561e-05
2.14541e-05
5.01315e-06
-3.08783e-06
-4.31774e-06
-2.56817e-06
-6.76182e-07
3.04897e-07
4.75189e-07
2.84297e-07
7.17228e-08
-3.64426e-08
-5.26305e-08
-2.97021e-08
-6.15502e-09
4.87859e-09
5.80725e-09
2.91817e-09
3.68576e-10
-6.62689e-10
-6.2794e-10
-2.66368e-10
-8.21328e-13
8.52525e-11
6.57927e-11
2.40872e-11
-8.71718e-13
-6.66106e-12
-3.91615e-12
-1.08501e-12
-7.14197e-13
-1.75043e-12
-2.5445e-12
-2.33574e-12
-1.30827e-12
-5.76228e-14
8.94012e-13
1.31105e-12
1.23034e-12
8.42688e-13
3.6803e-13
-2.74938e-14
-2.63269e-13
-3.36119e-13
-2.91179e-13
-1.89253e-13
-8.23342e-14
-1.78445e-15
4.22013e-14
5.43787e-14
4.63542e-14
3.00183e-14
1.39124e-14
2.32939e-15
-3.86111e-15
-5.75561e-15
-5.09586e-15
-3.42926e-15
-1.75354e-15
-5.72782e-16
2.93135e-16
1
1
1
0.999999
0.999976
0.999976
1.0001
1.00032
1.00018
0.998997
0.996934
0.996254
1.00112
1.01461
1.03388
1.04684
1.0338
0.974837
0.85956
0.693933
0.5
0.308436
0.147722
0.0351593
-0.0266028
-0.0470838
-0.0418621
-0.0261734
-0.0107318
-0.000579061
0.00373921
0.00403491
0.00257022
0.000971575
-3.59692e-05
-0.000397589
-0.000359261
-0.000186791
-4.05324e-05
3.03429e-05
4.13993e-05
2.57856e-05
8.01928e-06
-2.01859e-06
-4.48692e-06
-3.11006e-06
-1.08513e-06
1.48928e-07
4.88783e-07
3.51219e-07
1.22974e-07
-1.73211e-08
-5.47233e-08
-3.80433e-08
-1.22183e-08
2.84063e-09
6.2421e-09
3.9598e-09
1.04958e-09
-4.75866e-10
-7.10757e-10
-3.95439e-10
-7.59898e-11
6.76084e-11
7.54557e-11
3.68834e-11
6.59964e-12
-3.27114e-12
-1.45126e-12
1.77471e-12
1.98672e-12
-2.71586e-13
-2.79992e-12
-4.03393e-12
-3.66411e-12
-2.24574e-12
-5.78563e-13
7.23412e-13
1.38782e-12
1.44404e-12
1.09665e-12
5.9379e-13
1.34536e-13
-1.72172e-13
-3.04675e-13
-3.00014e-13
-2.1878e-13
-1.17175e-13
-3.22491e-14
2.05574e-14
4.21243e-14
4.1775e-14
3.05029e-14
1.69312e-14
5.96785e-15
-7.45025e-16
-3.62735e-15
-3.94558e-15
-3.08622e-15
-1.46169e-15
1
1
1
1
0.999993
0.999969
0.999995
1.00016
1.00035
1.00004
0.998649
0.99661
0.996454
1.00224
1.01647
1.03556
1.04713
1.03202
0.971377
0.855821
0.691564
0.5
0.310668
0.151087
0.0382517
-0.0248
-0.0468406
-0.0427801
-0.0275469
-0.0119352
-0.00128828
0.0035342
0.00415565
0.00280238
0.00116601
6.43519e-05
-0.000379392
-0.000383812
-0.000218782
-6.16627e-05
2.29581e-05
4.27975e-05
2.99747e-05
1.1335e-05
-5.99485e-07
-4.45928e-06
-3.61336e-06
-1.53758e-06
-6.10874e-08
4.71449e-07
4.11783e-07
1.80444e-07
9.53263e-09
-5.254e-08
-4.56225e-08
-1.92076e-08
-2.45687e-10
6.14412e-09
4.94028e-09
1.87216e-09
-1.50265e-10
-7.29353e-10
-5.20337e-10
-1.70333e-10
3.16864e-11
7.45987e-11
4.46402e-11
1.11576e-11
-1.88932e-12
3.48239e-13
5.88765e-12
7.67082e-12
4.99026e-12
3.80439e-13
-3.48665e-12
-5.256e-12
-4.93362e-12
-3.30286e-12
-1.30833e-12
3.35882e-13
1.28734e-12
1.53772e-12
1.28643e-12
8.00431e-13
3.08179e-13
-5.30147e-14
-2.40629e-13
-2.79895e-13
-2.27186e-13
-1.39566e-13
-5.75875e-14
-9.77304e-16
2.72941e-14
3.37581e-14
2.78317e-14
1.76071e-14
8.1742e-15
1.69019e-15
-1.61388e-15
-2.85428e-15
1
1
1
1
1
0.999985
0.999966
1.00002
1.00022
1.00036
0.999873
0.998298
0.996344
0.996747
1.00341
1.01826
1.03708
1.04729
1.03022
0.968048
0.852278
0.689332
0.5
0.312776
0.154289
0.0412361
-0.0230068
-0.0465277
-0.0436044
-0.0288545
-0.0131217
-0.0020202
0.00329203
0.00424704
0.00302265
0.00136354
0.0001745
-0.000352164
-0.000403711
-0.000250322
-8.45349e-05
1.36085e-05
4.30305e-05
3.38904e-05
1.48899e-05
1.16251e-06
-4.20973e-06
-4.0515e-06
-2.01985e-06
-3.23964e-07
4.18508e-07
4.61295e-07
2.41867e-07
4.40169e-08
-4.5267e-08
-5.16946e-08
-2.68005e-08
-4.39415e-09
5.37655e-09
5.74832e-09
2.7942e-09
3.21511e-10
-6.59743e-10
-6.20849e-10
-2.72727e-10
-1.82041e-11
6.38384e-11
4.57555e-11
9.3174e-12
-7.49066e-12
-4.00456e-12
6.55447e-12
1.34723e-11
1.33891e-11
8.24982e-12
1.6772e-12
-3.48357e-12
-5.99279e-12
-5.98719e-12
-4.35907e-12
-2.16307e-12
-2.26006e-13
1.01439e-12
1.48983e-12
1.37811e-12
9.53074e-13
4.64495e-13
7.38997e-14
-1.55799e-13
-2.35786e-13
-2.14725e-13
-1.4709e-13
-7.43482e-14
-1.90262e-14
1.25827e-14
2.4112e-14
2.29981e-14
1.62706e-14
9.15849e-15
1.75458e-15
1
1
1
1
1
0.999999
0.999977
0.999969
1.00006
1.00027
1.00034
0.999674
0.997952
0.996139
0.997122
1.00461
1.01999
1.03846
1.04732
1.02841
0.964841
0.848913
0.687224
0.5
0.314771
0.157342
0.0441189
-0.0212264
-0.0461536
-0.0443425
-0.0300982
-0.0142888
-0.00277045
0.0030158
0.00430973
0.00322985
0.00156249
0.000293389
-0.000316114
-0.000418577
-0.000280908
-0.000108832
2.3583e-06
4.2005e-05
3.74091e-05
1.86075e-05
3.25082e-06
-3.71913e-06
-4.39895e-06
-2.51643e-06
-6.36379e-07
3.2641e-07
4.95137e-07
3.04557e-07
8.56195e-08
-3.2273e-08
-5.55017e-08
-3.45869e-08
-9.54837e-09
3.82614e-09
6.26203e-09
3.75198e-09
9.29664e-10
-4.86028e-10
-6.77229e-10
-3.67806e-10
-7.1033e-11
5.14706e-11
4.59149e-11
3.16284e-12
-2.2201e-11
-2.01661e-11
-3.59952e-12
1.24436e-11
2.00541e-11
1.87167e-11
1.19054e-11
3.78297e-12
-2.65741e-12
-6.10926e-12
-6.67245e-12
-5.26156e-12
-3.01629e-12
-8.78381e-13
6.09387e-13
1.30711e-12
1.35782e-12
1.02875e-12
5.79494e-13
1.88182e-13
-6.50128e-14
-1.76796e-13
-1.85678e-13
-1.40572e-13
-8.13114e-14
-3.15037e-14
1.27774e-16
1.45522e-14
1.73415e-14
1.2403e-14
1
1
1
1
1
1
0.999994
0.99997
0.999978
1.0001
1.00032
1.00029
0.999453
0.997619
0.995994
0.997568
1.00583
1.02164
1.03971
1.04725
1.0266
0.961748
0.845711
0.685229
0.5
0.316664
0.160259
0.0469061
-0.0194615
-0.0457261
-0.045001
-0.0312804
-0.0154344
-0.0035352
0.00270848
0.00434457
0.00342307
0.00176139
0.000419943
-0.000271537
-0.000428126
-0.00031008
-0.000134231
-1.0698e-05
3.96535e-05
4.04167e-05
2.24072e-05
5.64045e-06
-2.9745e-06
-4.63192e-06
-3.01058e-06
-9.93037e-07
1.92857e-07
5.08953e-07
3.65508e-07
1.33431e-07
-1.31446e-08
-5.63083e-08
-4.20827e-08
-1.55753e-08
1.41666e-09
6.35877e-09
4.66222e-09
1.64228e-09
-2.09362e-10
-6.80191e-10
-4.44608e-10
-1.14704e-10
5.16553e-11
6.00849e-11
5.26017e-12
-3.8951e-11
-4.78229e-11
-3.00105e-11
-4.04501e-12
1.60845e-11
2.48794e-11
2.34018e-11
1.58079e-11
6.56688e-12
-1.07624e-12
-5.57792e-12
-6.88303e-12
-5.86943e-12
-3.7342e-12
-1.51856e-12
1.37554e-13
1.02189e-12
1.2339e-12
1.02095e-12
6.39344e-13
2.74195e-13
1.77924e-14
-1.13405e-13
-1.46677e-13
-1.23285e-13
-7.93383e-14
-3.77091e-14
-9.45814e-15
1.00121e-14
1
1
1
1
1
1
1
0.999988
0.999965
0.999994
1.00015
1.00035
1.00022
0.999214
0.997304
0.995908
0.998077
1.00706
1.02322
1.04084
1.04708
1.0248
0.958764
0.842658
0.683336
0.5
0.318465
0.16305
0.0496032
-0.0177142
-0.0452515
-0.0455862
-0.0324034
-0.016557
-0.00431106
0.00237287
0.00435251
0.00360162
0.00195888
0.000553114
-0.000218795
-0.000432155
-0.000337425
-0.000160408