/*--------------------------------*- C++ -*----------------------------------*\
  =========                 |
  \\      /  F ield         | OpenFOAM: The Open Source CFD Toolbox
   \\    /   O peration     | Website:  https://openfoam.org
    \\  /    A nd           | Version:  7
     \\/     M anipulation  |
\*---------------------------------------------------------------------------*/
FoamFile
{
    version     2.0;
    format      ascii;
    class       volScalarField;
    location    "0.5";
    object      T;
}
// * * * * * * * * * * * * * * * * * * * * * * * * * * * * * * * * * * * * * //

dimensions      [0 0 0 1 0 0 0];

internalField   nonuniform List<scalar> 
23686
(
0.509941
0.910643
0.997281
0.975489
1.00718
1.01727
1.00286
1.00909
1.00026
1.00127
0.999751
0.999405
0.999891
0.999662
0.999995
0.99997
1.00001
1.00003
1.00001
1.00002
1
1
0.999999
0.999998
1
0.999999
1
1
1
1
1
1
1
1
1
1
1
1
1
1
1
1
1
1
1
1
1
1
1
1
1
1
1
1
1
1
1
1
1
1
1
1
1
1
1
1
1
1
1
1
1
1
1
1
1
1
1
1
1
1
1
1
1
1
1
1
1
1
1
1
1
1
1
1
1
1
1
1
1
1
1
1
1
1
1
1
1
1
1
1
1
1
1
1
1
1
1
1
1
1
1
1
1
1
1
1
1
1
1
1
1
1
1
1
1
1
1
1
1
1
1
1
1
1
1
1
1
1
1
1
1
1
1
1
1
1
1
1
1
1
1
1
1
1
1
1
1
1
1
1
1
1
1
1
1
1
1
1
1
1
1
1
1
1
1
1
1
1
1
1
1
1
1
1
1
1
1
1
1
0.11164
-0.00310636
-0.000317299
5.52315e-05
-1.03085e-05
1.75242e-07
1.75518e-07
-3.22233e-08
2.01408e-09
3.74888e-10
-1.68402e-10
1.43801e-11
1.42737e-12
-8.24473e-13
9.38855e-14
8.55813e-15
-4.55433e-15
5.69366e-16
1.00074e-16
-6.18076e-17
-7.13789e-18
2.11803e-18
4.59509e-19
-1.00552e-20
-1.53899e-20
-1.53818e-21
9.08863e-23
4.00014e-23
3.27299e-24
-9.03696e-26
-5.58943e-26
-5.86883e-27
-1.21456e-28
3.31497e-29
5.52163e-30
2.47865e-31
-1.11391e-32
-3.64629e-33
-3.06066e-34
-7.17347e-36
1.08627e-36
1.66687e-37
9.0872e-39
-2.20707e-41
-6.2182e-41
-5.6421e-42
-2.5554e-43
-1.7103e-45
1.28456e-45
-1.58018e-62
3.75218e-46
-5.69006e-45
-3.17579e-43
1.24979e-41
-2.28096e-41
-6.56517e-40
2.35858e-38
-2.00509e-36
-2.26265e-35
-1.93423e-34
1.00314e-32
5.19751e-32
2.19049e-31
-8.70015e-30
2.89202e-29
1.91862e-27
-3.04136e-27
-1.14713e-25
1.22586e-24
6.76326e-24
-8.08627e-23
2.16611e-21
1.49085e-20
5.83526e-21
-4.19828e-19
-2.79123e-18
-5.58435e-17
-2.66449e-16
-3.39112e-16
-4.52772e-15
-2.1257e-14
2.12159e-14
-2.00286e-14
1.12976e-13
-3.90174e-13
8.0858e-13
1.34683e-13
1.8163e-12
-5.77506e-12
-4.37021e-11
-8.5752e-11
1.20989e-10
1.01489e-09
5.05013e-09
1.4528e-08
3.18728e-08
6.22321e-08
9.56231e-08
1.10252e-07
1.41562e-07
1
1
1
1
1
1
1
1
1
1
1
1
1
1
1
1
1
1
1
1
1
1
1
1
1
1
1
1
1
1
1
1
1
1
0.999999
1
0.999998
0.999998
1
0.999999
1
1
1.00001
1
1.00001
1.00001
0.999996
1
0.999964
0.999975
0.999956
0.99996
0.999979
0.99997
1.00003
1.00001
1.00011
1.00008
1.00029
1.00024
1.00054
1.00047
1.00057
1.00056
1
1.00017
0.998392
0.99889
0.995046
0.996173
0.989342
0.991192
0.97998
0.982752
0.966247
0.970362
0.947006
0.95275
0.922694
0.930199
0.892386
0.901815
0.856983
0.867792
0.815959
0.828504
0.769126
0.783199
0.718812
0.733449
0.665469
0.68109
0.607895
0.624584
0.551368
0.567497
0.495435
0.511578
0.439868
0.45617
0.386263
0.40151
0.337137
0.350839
0.291429
0.3044
0.248892
0.260963
0.21014
0.220959
0.176557
0.185874
0.147123
0.155402
0.120635
0.128
0.0987292
0.104788
0.0799101
0.0850888
0.0638019
0.0681761
0.0510775
0.0545543
0.040588
0.0434725
0.0316222
0.0340336
0.0247175
0.0265733
0.0192041
0.0206921
0.0147233
0.0159422
0.0111819
0.0121249
0.00852723
0.00923359
0.00642258
0.0069794
0.00481108
0.00523744
0.0035446
0.00387307
0.00263004
0.00287008
0.00194401
0.00212679
0.00140554
0.00154506
0.00102392
0.00112344
0.000738849
0.00081281
0.000526904
0.000581068
0.000376966
0.000415374
0.000269318
0.000297374
0.000187901
0.000208497
0.000132599
0.000146661
9.30295e-05
0.000103077
6.44395e-05
7.16768e-05
4.50617e-05
5.01105e-05
3.07672e-05
3.43868e-05
2.12192e-05
2.36588e-05
1.44566e-05
1.61648e-05
9.69984e-06
1.08786e-05
6.60964e-06
7.3917e-06
4.5014e-06
5.04415e-06
2.99149e-06
3.36842e-06
2.00983e-06
2.25835e-06
1.35689e-06
1.529e-06
9.07642e-07
1.0331e-06
6.01851e-07
6.92073e-07
4.07213e-07
4.7049e-07
2.55754e-07
1.67065e-07
2.9633e-07
3.68742e-46
1.21422e-07
0.0139069
-0.00200416
0.000101508
-3.29739e-06
-3.45345e-06
5.32192e-07
-1.86729e-08
-8.67333e-09
1.98525e-09
-2.2919e-10
-3.02428e-11
1.02257e-11
-1.2555e-12
-1.13577e-13
5.91772e-14
-6.77509e-15
-7.07656e-16
4.17733e-16
-5.22711e-17
-2.99299e-17
1.07728e-18
1.26646e-18
9.93122e-20
-2.47461e-20
-5.98211e-21
-1.68651e-22
8.1566e-23
1.35894e-23
4.46134e-25
-1.05815e-25
-2.07398e-26
-1.21611e-27
4.07231e-29
1.54603e-29
1.43308e-30
1.54397e-32
-8.04243e-33
-1.20427e-33
-6.07734e-35
1.00329e-36
4.79276e-37
4.43559e-38
1.27841e-39
-1.19086e-40
-2.11235e-41
-1.30694e-42
-3.96204e-44
2.24616e-45
-0.00133342
5.09216e-46
1.45683e-07
-5.98084e-46
-4.07844e-44
1.97104e-42
-5.12362e-41
-6.84373e-41
2.40687e-39
1.76445e-37
8.10226e-36
5.50297e-35
-3.56128e-34
-3.96615e-32
-9.20702e-32
1.42954e-30
2.158e-29
-5.19986e-28
-3.4819e-27
4.29665e-26
-7.72492e-27
-5.21739e-24
2.39852e-23
-2.46894e-22
-7.09466e-21
-2.33441e-20
1.27274e-19
8.65176e-19
1.41101e-17
1.54743e-16
2.88856e-16
1.23331e-15
1.14752e-14
2.06649e-14
-4.98331e-14
9.9967e-14
-2.44794e-13
2.89897e-13
-6.49906e-14
1.52621e-12
-4.38749e-13
-2.00557e-11
-6.7807e-11
-2.16355e-11
3.59626e-10
2.41894e-09
9.0091e-09
2.22803e-08
4.53401e-08
8.09632e-08
1.11159e-07
0.000148593
0.0642368
-2.77272e-05
0.453368
0.000140418
1.57756e-06
-1.07378e-05
1.40764e-06
-1.25938e-08
-2.71592e-08
5.36361e-09
-5.32512e-10
-1.06813e-10
2.87381e-11
-3.08423e-12
-4.05835e-13
1.70499e-13
-1.77884e-14
-2.19948e-15
1.2334e-15
-1.8105e-16
-9.91014e-17
3.39041e-18
4.43083e-18
3.79007e-19
-7.5162e-20
-2.13174e-20
-8.3401e-22
2.56562e-22
4.96625e-23
2.09771e-24
-3.17446e-25
-7.23448e-26
-5.07824e-27
8.71542e-29
5.13721e-29
5.65905e-30
1.09663e-31
-2.5795e-32
-4.32168e-33
-2.54613e-34
1.03468e-36
1.62594e-36
1.72985e-37
6.18786e-39
-3.23887e-40
-7.53068e-41
-5.38085e-42
-1.82352e-43
4.96662e-45
1.52168e-45
-5.21841e-44
1.5842e-42
-5.04077e-41
-2.07559e-42
4.43307e-39
1.60867e-37
5.45507e-36
-2.64527e-36
-1.01074e-33
-3.96459e-32
-3.47836e-32
1.71422e-30
1.66006e-29
-5.31264e-28
-3.41058e-27
3.5266e-26
-7.01987e-26
-5.07819e-24
1.97532e-23
-2.57037e-22
-6.18753e-21
-1.76324e-20
1.18697e-19
5.89011e-19
1.11618e-17
1.33016e-16
2.39279e-16
1.07943e-15
1.04182e-14
2.00985e-14
-4.79748e-14
1.0175e-13
-2.57626e-13
2.96165e-13
8.89631e-15
1.74228e-12
-6.60153e-13
-2.41546e-11
-7.86624e-11
-2.12684e-11
4.55384e-10
2.96255e-09
1.081e-08
2.67432e-08
5.39948e-08
9.58987e-08
1.29897e-07
-4.75094e-46
-1.13217e-07
5.32849e-07
-8.5899e-08
3.92887e-09
1.22814e-09
-4.57462e-10
3.26977e-11
5.0082e-12
-2.22452e-12
2.40026e-13
2.85071e-14
-1.2099e-14
1.61294e-15
2.58356e-16
-2.05788e-16
-2.51425e-17
7.31343e-18
1.69006e-18
-9.79795e-21
-4.85736e-20
-5.8445e-21
2.43543e-22
1.28651e-22
1.29762e-23
-1.79967e-25
-1.7328e-25
-2.20835e-26
-6.59241e-28
1.08797e-28
1.92055e-29
1.10591e-30
-3.06314e-32
-1.18054e-32
-1.20132e-33
-3.68873e-35
3.31394e-36
5.71114e-37
3.84e-38
2.8127e-40
-1.89322e-40
-2.21996e-41
-1.10821e-42
-1.59944e-44
3.73147e-45
-1.6119e-43
1.33409e-41
-5.19237e-41
-8.29506e-40
1.8043e-38
-1.76437e-36
-1.05241e-35
3.13393e-35
1.12229e-32
4.06306e-32
7.44141e-32
-8.31209e-30
4.31588e-29
1.91056e-27
-2.04241e-27
-9.22431e-26
1.26497e-24
7.02732e-24
-6.44397e-23
2.06751e-21
1.24291e-20
1.08213e-21
-3.61225e-19
-1.96812e-18
-4.79377e-17
-2.326e-16
-2.86164e-16
-4.05994e-15
-1.96604e-14
2.04935e-14
-1.89656e-14
1.11634e-13
-4.03669e-13
8.4183e-13
2.4398e-13
1.99509e-12
-7.35576e-12
-5.15509e-11
-9.58248e-11
1.48091e-10
1.25571e-09
6.07835e-09
1.7495e-08
3.81978e-08
7.4002e-08
1.13507e-07
1.31463e-07
-0.00528114
-0.00556021
-7.60923e-45
0.594883
-0.00160947
0.942444
1.00339
0.979133
1.00791
1.01325
1.00265
1.00761
0.999944
1.00096
0.999656
0.999356
0.999885
0.999649
1
0.999959
1.00002
1.00003
1.00001
1.00002
1
1
0.999999
0.999998
1
0.999999
1
1
1
1
1
1
1
1
1
1
1
1
1
1
1
1
1
1
1
1
1
1
1
1
1
1
1
1
1
1
1
1
1
1
1
1
1
1
1
1
1
1
1
1
1
1
1
1
1
1
1
1
1
1
1
1
1
1
1
1
1
1
1
1
1
1
1
1
1
1
1
1
1
1
1
1
1
1
1
1
1
1
1
1
1
1
1
1
1
1
1
1
1
1
1
1
1
1
1
1
1
1
1
1
1
1
1
1
1
1
1
1
1
1
1
1
1
1
1
1
1
1
1
1
1
1
1
1
1
1
1
1
1
1
1
1
1
1
1
1
1
1
1
1
1
1
1
1
1
1
1
1
1
1
1
1
1
1
1
1
1
1
1
1
1
1
1
1
1
-1.55484e-44
0.00261077
0.000236229
0.235597
-1.05639e-05
-3.43468e-06
7.57142e-07
-5.5299e-08
-7.5579e-09
3.2388e-09
-3.77396e-10
-2.45889e-11
1.58886e-11
-2.19386e-12
-9.98264e-14
8.80902e-14
-1.40231e-14
-8.84057e-17
1.05438e-15
-5.45459e-17
-6.40605e-17
-3.07897e-18
1.84468e-18
3.20391e-19
-4.36922e-21
-7.50497e-21
-8.62678e-22
2.1214e-23
1.52895e-23
1.62878e-24
1.80057e-26
-1.56369e-26
-1.84535e-27
-7.25688e-29
8.75248e-30
1.64777e-30
1.02869e-31
-3.44852e-34
-8.6017e-34
-8.60499e-35
-3.51887e-36
1.7112e-37
3.98247e-38
3.25796e-39
9.72974e-41
-8.25431e-42
-1.13336e-42
-8.18997e-44
-2.39575e-45
8.03408e-44
-0.00445074
-0.00527208
-0.00421271
2.59285e-46
1.92703e-07
2.79666e-07
-1.31586e-05
-1.12008e-05
0.517419
1.39271e-41
-7.50319e-41
-7.09416e-40
2.27655e-38
-1.93097e-36
-8.76222e-36
1.66566e-34
1.35363e-32
6.45515e-32
1.29201e-31
-1.03906e-29
2.7596e-29
2.68871e-27
1.46477e-27
-1.34454e-25
1.43095e-24
1.31662e-23
-9.92647e-23
2.5421e-21
1.77373e-20
1.67265e-20
-4.8813e-19
-2.19795e-18
-6.21907e-17
-3.62892e-16
-4.67939e-16
-5.35229e-15
-3.04172e-14
1.50656e-14
6.43866e-15
8.93071e-14
-4.478e-13
1.08845e-12
6.26869e-13
2.2053e-12
-1.38287e-11
-7.78669e-11
-1.15646e-10
2.87449e-10
2.10614e-09
9.42555e-09
2.56016e-08
5.50971e-08
1.04372e-07
1.55458e-07
1.60896e-07
2.06458e-07
0.0528654
0.185682
0.025489
7.61732e-05
0.000473589
6.62957e-05
7.89363e-06
1
1
1
1
1
1
1
1
1
1
1
1
1
1
1
1
1
1
1
1
1
1
1
1
1
1
1
1
1
1
1
1
0.999999
0.999999
0.999999
0.999998
1
0.999999
1
1
1.00001
1.00001
1.00001
1.00001
0.999989
0.999999
0.999963
0.999973
0.999964
0.999961
0.999987
0.99997
1.00003
0.999995
1.00012
1.00006
1.00032
1.00023
1.00056
1.0005
1.00052
1.00064
0.999888
1.00038
0.998223
0.999317
0.994921
0.996849
0.989188
0.992468
0.979389
0.984358
0.965396
0.97203
0.946269
0.955327
0.922356
0.933256
0.892804
0.906529
0.857147
0.872953
0.81641
0.834314
0.769768
0.789852
0.718466
0.739777
0.665028
0.686416
0.608659
0.631747
0.551345
0.57423
0.495382
0.517278
0.441456
0.462529
0.387918
0.408983
0.336709
0.355653
0.291926
0.308769
0.249954
0.265577
0.211089
0.225395
0.17709
0.189467
0.147717
0.158198
0.121688
0.131135
0.0992774
0.107176
0.0803904
0.0870723
0.0643046
0.0699356
0.05143
0.0559292
0.0408211
0.0444123
0.0319827
0.0350244
0.0248973
0.0273085
0.0192985
0.0211732
0.0149157
0.0163846
0.0113506
0.012553
0.00855951
0.00945886
0.00648916
0.00718221
0.00485382
0.00538372
0.00358831
0.00399994
0.00265791
0.00295929
0.00196826
0.00218897
0.00143161
0.00160432
0.00103715
0.00116147
0.000746617
0.000837106
0.000534707
0.000601457
0.00038147
0.000429486
0.000272504
0.000306118
0.000191796
0.000216887
0.000134389
0.000152089
9.36453e-05
0.000105858
6.57845e-05
7.44874e-05
4.58698e-05
5.18102e-05
3.15943e-05
3.59595e-05
2.16504e-05
2.46314e-05
1.47355e-05
1.68043e-05
9.93153e-06
1.13748e-05
6.76077e-06
7.7223e-06
4.59987e-06
5.23905e-06
3.08794e-06
3.54119e-06
2.05415e-06
2.3575e-06
1.3883e-06
1.58569e-06
9.56385e-07
1.08731e-06
6.66982e-07
7.66866e-07
0.759785
-1.20192e-45
-0.000422185
0.806072
-1.8626e-44
0.000213928
-6.84599e-44
-1.44507e-45
6.51624e-07
1.63028e-07
-4.58141e-08
4.84696e-09
4.09643e-10
-2.18034e-10
2.76219e-11
1.45295e-12
-1.15763e-12
1.6327e-13
6.34346e-15
-6.97195e-15
1.54177e-15
3.00769e-16
-1.11577e-16
-2.17787e-17
2.03139e-18
9.0697e-19
6.73938e-20
-1.34433e-20
-2.91345e-21
-1.42548e-22
3.10391e-23
5.56886e-24
3.33881e-25
-2.54517e-26
-6.22048e-27
-4.33279e-28
2.52875e-30
4.87619e-30
4.39021e-31
1.69337e-32
-1.73802e-33
-2.99534e-34
-2.01288e-35
-1.88098e-37
1.08783e-37
1.19905e-38
7.0287e-40
-4.19621e-42
-3.65698e-42
-3.17815e-43
-1.57636e-44
-2.45789e-44
-2.08813e-07
2.48501e-42
-7.65692e-41
3.61055e-41
9.28873e-39
1.04005e-37
5.21383e-36
-3.31856e-35
-1.09514e-33
-5.56261e-32
-1.32943e-32
1.98584e-30
2.39722e-29
-5.98495e-28
-5.36331e-27
3.87104e-26
-7.13143e-27
-6.68457e-24
1.60839e-23
-1.93356e-22
-7.97265e-21
-2.69351e-20
1.38947e-19
7.31759e-19
1.24509e-17
1.80002e-16
4.16204e-16
1.29479e-15
1.48408e-14
3.87683e-14
-7.62536e-14
1.5945e-13
-4.59736e-13
6.6675e-13
-2.63335e-13
2.75181e-12
-2.69651e-12
-3.95394e-11
-1.07848e-10
2.30042e-11
7.9247e-10
4.75295e-09
1.6054e-08
3.8908e-08
7.62145e-08
1.32558e-07
1.76626e-07
1.61869e-06
-3.74052e-12
-8.61923e-44
3.82995e-11
4.59599e-07
-2.75324e-05
-1.26849e-10
1.75332e-07
1.16177e-07
6.09294e-08
2.76791e-08
1.00299e-08
2.1593e-09
2.67729e-10
-1.41621e-10
-8.50719e-11
-1.37533e-11
2.87099e-12
6.47657e-13
1.20716e-12
-5.46307e-13
1.31893e-13
-5.93652e-15
2.11754e-14
-3.13781e-14
-6.02069e-15
-4.65595e-16
-3.62136e-16
-6.68605e-17
-2.22138e-18
-5.07131e-19
2.48051e-21
1.76479e-20
3.00848e-21
-9.33451e-23
1.27202e-23
1.88182e-24
-1.2431e-25
-6.7394e-28
3.01648e-27
6.0073e-29
-1.24374e-29
-6.82804e-33
5.87044e-32
1.82235e-32
3.1357e-34
-2.82891e-36
-2.24933e-36
2.57649e-38
-1.25132e-39
-1.143e-44
-2.77111e-43
-3.82409e-42
-1.90789e-41
4.66061e-40
1.06844e-38
1.23459e-37
3.41296e-37
-1.41685e-35
-2.80362e-34
-2.40329e-33
5.46697e-33
3.5775e-31
5.27305e-30
1.94994e-29
-2.96475e-28
-6.07133e-27
-4.09737e-26
1.64119e-25
5.27063e-24
4.21201e-23
-8.01127e-24
-2.75893e-21
-2.02891e-20
1.4956e-20
9.78979e-19
4.4622e-18
-1.4214e-17
-1.72556e-16
2.36905e-18
2.71864e-15
-1.93687e-15
-2.36718e-14
2.17558e-13
-6.25735e-13
1.98084e-07
1.47873e-07
8.42532e-08
4.24e-08
1.72852e-08
4.94715e-09
7.85688e-10
-4.89848e-12
-1.21624e-10
-4.12737e-11
-1.91478e-12
3.08238e-12
-1.82017e-13
6.04623e-13
-4.61375e-13
1.65042e-13
-7.85639e-14
3.75414e-14
1.59977e-14
1.48825e-15
3.92151e-16
1.89356e-16
1.41862e-17
7.09899e-19
1.71698e-19
-2.43161e-20
-8.76996e-21
-3.37324e-22
2.26653e-23
-7.6493e-24
-1.1071e-25
4.57393e-26
-5.52167e-27
-7.88775e-28
2.42178e-29
2.88386e-30
7.93582e-33
-6.39225e-32
-2.00459e-33
-6.51859e-35
5.52793e-36
2.25796e-42
-6.33591e-44
-1.06058e-42
-1.04722e-41
2.51634e-41
2.65056e-39
3.85838e-38
2.89003e-37
-1.60955e-36
-7.17168e-35
-9.1127e-34
-3.77897e-33
7.11953e-32
1.50992e-30
1.24867e-29
-2.07539e-29
-1.53892e-27
-1.76486e-26
-4.37212e-26
1.26956e-24
1.6482e-23
6.7422e-23
-6.18565e-22
-8.5214e-21
-2.74915e-20
2.54175e-19
2.45339e-18
2.77935e-18
-6.66077e-17
-2.35746e-16
9.79587e-16
3.21854e-15
-1.72566e-14
4.24465e-14
2.53167e-13
-2.95126e-12
8.49621e-12
4.04704e-11
-5.31617e-10
1.99188e-09
6.03953e-09
-1.04477e-07
5.89491e-07
7.82952e-09
-3.02892e-08
-3.21977e-08
-5.63445e-10
-1.17702e-40
2.06203e-41
-8.30822e-41
4.39456e-41
9.89656e-39
1.90733e-37
0.000277452
0.982244
1.00991
1.00371
1.00638
1.01397
1.00125
1.00491
0.999712
1.00021
0.999713
0.999455
0.999923
0.999743
1.00001
0.999978
1.00002
1.00003
1
1.00001
0.999999
1
0.999999
0.999998
1
0.999999
1
1
1
1
1
1
1
1
1
1
1
1
1
1
1
1
1
1
1
1
1
1
1
1
1
1
1
1
1
1
1
1
1
1
1
1
1
1
1
1
1
1
1
1
1
1
1
1
1
1
1
1
1
1
1
1
1
1
1
1
1
1
1
1
1
1
1
1
1
1
1
1
1
1
1
1
1
1
1
1
1
1
1
1
1
1
1
1
1
1
1
1
1
1
1
1
1
1
1
1
1
1
1
1
1
1
1
1
1
1
1
1
1
1
1
1
1
1
1
1
1
1
1
1
1
1
1
1
1
1
1
1
1
1
1
1
1
1
1
1
1
1
1
1
1
1
1
1
1
1
1
1
1
1
1
1
1
1
1
1
1
1
1
1
1
8.99314e-38
-1.11632e-05
-5.12374e-13
-1.26835e-40
5.46349e-07
1.46547e-11
-3.23795e-09
2.78269e-09
1.07785e-06
6.55745e-08
-4.30261e-08
-2.53915e-08
5.86472e-09
8.24109e-09
7.47077e-09
2.3351e-07
3.53553e-07
-1.94595e-10
-8.66324e-11
-8.51464e-44
3.39555e-11
3.9793e-11
2.63592e-07
-2.44606e-12
3.41345e-14
7.78351e-14
-2.18494e-14
6.43617e-17
1.57737e-15
2.72316e-17
-7.44165e-17
-8.54702e-18
1.18048e-18
3.45802e-19
1.89477e-20
-4.61614e-21
-9.3272e-22
-4.29809e-23
7.06185e-24
1.4351e-24
8.17353e-26
-5.76252e-27
-1.44152e-27
-1.16281e-28
-3.08605e-31
9.68364e-31
1.05581e-31
4.32153e-33
-2.62404e-34
-6.06724e-35
-4.37014e-36
-7.78623e-38
1.76495e-38
2.27272e-39
1.31001e-40
1.53058e-42
-4.86055e-43
-1.66997e-05
-2.49828e-05
1.75625e-38
1.58024e-40
2.10874e-41
-1.37268e-40
-8.0397e-40
1.90508e-38
2.46616e-38
3.26144e-38
2.08959e-37
3.12698e-42
3.10866e-41
5.20687e-36
-1.28878e-34
-2.52839e-33
-8.594e-32
5.9843e-32
3.48675e-30
3.43813e-29
-9.03268e-28
-8.42017e-27
4.23628e-26
-4.38825e-26
-9.80247e-24
1.32371e-23
-2.49352e-22
-1.11792e-20
-3.49228e-20
1.77675e-19
9.13763e-19
1.44674e-17
2.47601e-16
6.44716e-16
1.77357e-15
2.14772e-14
6.84276e-14
-1.1642e-13
2.4002e-13
-7.40222e-13
1.18277e-12
-6.13481e-13
4.65743e-12
-5.94272e-12
-6.66614e-11
-1.63136e-10
8.40452e-11
1.37322e-09
7.92851e-09
2.55949e-08
6.0264e-08
1.18789e-07
2.00454e-07
2.61291e-07
-1.62994e-06
-7.78346e-06
1.0771e-06
1
1
1
1
1
1
1
1
1
1
1
1
1
1
1
1
1
1
1
1
1
1
1
1
1
1
1
1
1
1
0.999999
1
0.999999
0.999999
1
0.999999
1
0.999999
1.00001
1
1.00001
1.00001
0.99999
0.999999
0.999971
0.999977
0.999974
0.99997
0.999986
0.999974
1.00001
0.999984
1.00009
1.00005
1.00029
1.00021
1.00052
1.00047
1.0005
1.00063
0.999996
1.00046
0.998619
0.999655
0.995723
0.997586
0.990465
0.993544
0.981266
0.986087
0.967851
0.974427
0.949648
0.95842
0.927042
0.937473
0.898825
0.912114
0.864642
0.88002
0.824932
0.842394
0.778727
0.798538
0.728254
0.7493
0.674787
0.696867
0.618807
0.641814
0.562484
0.585044
0.506249
0.528366
0.451295
0.472735
0.39791
0.418848
0.346346
0.36599
0.299923
0.317067
0.257383
0.273517
0.217831
0.232318
0.183281
0.195907
0.152624
0.163335
0.126232
0.135803
0.10322
0.111261
0.083808
0.0906233
0.0671471
0.0729993
0.0537746
0.0584273
0.0426258
0.0464828
0.033404
0.0365727
0.0261643
0.0286444
0.0202929
0.0222665
0.0156286
0.0171835
0.0119219
0.0131476
0.00905533
0.0100143
0.00682769
0.00755391
0.0051243
0.00568685
0.00379574
0.00422722
0.00282154
0.00314008
0.00207449
0.00230584
0.00151927
0.0016992
0.00110105
0.00123175
0.00079362
0.000891059
0.000567277
0.00063852
0.000406652
0.00045756
0.000290315
0.000326565
0.000203584
0.000230309
0.000143917
0.000162692
0.000100035
0.000113312
7.02076e-05
7.94677e-05
4.86858e-05
5.50519e-05
3.38152e-05
3.83921e-05
2.32206e-05
2.63754e-05
1.57929e-05
1.79779e-05
1.07534e-05
1.22648e-05
7.32119e-06
8.35174e-06
4.95791e-06
5.66529e-06
3.31965e-06
3.81293e-06
2.22683e-06
2.55419e-06
1.50795e-06
1.72541e-06
1.02534e-06
1.16619e-06
3.09839e-05
-1.13942e-05
2.63615e-07
-0.00459306
-4.40084e-10
-5.19794e-10
-0.000867393
7.78045e-05
3.71741e-07
-3.53555e-44
0.572277
-1.21807e-43
-1.63082e-39
0.872928
5.74444e-07
1.43079e-09
9.40159e-11
6.45136e-07
-8.2168e-08
-1.6605e-40
1.50349e-06
5.73942e-11
2.93514e-07
6.66428e-14
-1.00884e-12
2.11264e-13
-1.04643e-14
-8.77874e-15
2.32532e-15
5.52396e-16
-1.0127e-16
-3.33821e-17
-1.3126e-19
7.94457e-19
1.0823e-19
-3.01713e-21
-2.48858e-21
-2.60809e-22
4.44981e-24
3.92277e-24
4.04639e-25
4.81358e-27
-3.70955e-27
-4.57185e-28
-2.11218e-29
1.84685e-30
3.54431e-31
2.55189e-32
1.54141e-34
-1.60037e-34
-1.78536e-35
-8.32577e-37
2.23111e-38
6.96216e-39
6.05865e-40
2.20619e-41
-7.87935e-43
6.77554e-12
3.77707e-43
3.0069e-07
0.0179633
-0.003371
1.42598e-40
-2.46302e-40
-4.76367e-44
0.921152
1.47543e-35
5.26303e-36
-2.43637e-36
-1.915e-34
-2.92762e-36
6.18838e-34
2.20763e-32
9.20447e-32
-3.14053e-32
-1.54624e-29
3.59844e-29
3.78565e-27
4.90926e-27
-1.571e-25
2.15039e-24
2.13444e-23
-1.30738e-22
3.49591e-21
2.34372e-20
1.9365e-20
-6.64458e-19
-1.85447e-18
-7.77623e-17
-5.30718e-16
-7.02514e-16
-7.65451e-15
-4.54842e-14
2.77213e-15
4.58366e-14
5.96534e-14
-4.95567e-13
1.41166e-12
1.51655e-12
2.62594e-12
-2.52711e-11
-1.24767e-10
-1.58734e-10
5.10839e-10
3.62242e-09
1.528e-08
4.04107e-08
8.54787e-08
1.61094e-07
0.000195338
8.30609e-34
7.18941e-07
0.0738136
0.000138865
2.2283e-07
1.30473e-07
6.58645e-08
2.75177e-08
8.29608e-09
1.34282e-09
4.19009e-11
-1.84986e-10
-6.93968e-11
-4.76178e-12
5.26083e-12
-5.38246e-13
1.12152e-12
-7.63446e-13
2.54289e-13
-1.21969e-13
6.73349e-14
2.28116e-14
2.13985e-15
6.10785e-16
2.62435e-16
1.65544e-17
8.59226e-19
2.31645e-19
-2.98296e-20
-1.25347e-20
-4.52743e-22
2.37132e-23
-1.13287e-23
-2.11472e-25
5.14966e-26
-8.60223e-27
-1.20434e-42
1.18754e-41
5.00104e-40
6.9854e-39
4.1057e-38
-4.81062e-37
-1.53199e-35
-1.75614e-34
-4.36395e-34
1.84758e-32
3.39123e-31
2.499e-30
-9.55663e-30
-4.02649e-28
-4.09199e-27
-8.04162e-27
3.202e-25
4.21067e-24
1.44601e-23
-1.95049e-22
-2.75425e-21
-9.49369e-21
8.32468e-20
9.67068e-19
1.92263e-18
-3.06632e-17
-1.77743e-16
2.94405e-16
3.82115e-15
-3.47213e-15
-4.53214e-14
-1.0912e-07
-6.79194e-10
1.77794e-07
9.38419e-08
4.3949e-08
1.62763e-08
3.70306e-09
4.78883e-10
-1.979e-10
-1.35445e-10
-2.53332e-11
3.69211e-12
1.53557e-12
1.59761e-12
-6.5372e-13
1.22934e-13
2.70046e-14
1.3114e-14
-4.8252e-14
-8.51372e-15
-6.8831e-16
-5.23504e-16
-8.48638e-17
-1.8191e-18
-7.12794e-19
-4.02571e-22
2.31229e-20
4.14133e-21
-1.27108e-22
2.08146e-23
2.72984e-24
-1.46835e-25
2.49152e-27
-0.00678227
-0.0031757
-0.00995505
4.30857e-27
8.05899e-29
-1.86742e-29
-2.38687e-31
8.02915e-32
2.86735e-32
-8.22504e-43
9.416e-41
2.08049e-39
2.03923e-38
1.42794e-38
-3.30929e-36
-5.88061e-35
-3.97538e-34
2.05157e-33
9.06392e-32
1.05459e-30
3.18548e-30
-8.61809e-29
-1.41793e-27
-8.76074e-27
4.29923e-26
1.32818e-24
9.47522e-24
-1.16619e-23
-8.65837e-22
-6.41911e-21
3.41672e-21
3.41932e-19
1.93196e-18
-4.13485e-18
-9.19037e-17
-1.73473e-16
1.68483e-15
4.11486e-15
-2.43051e-14
9.7052e-15
3.49061e-13
-2.74319e-12
-2.29819e-43
0.64697
2.56727e-43
3.93944e-07
-1.16864e-07
-1.92563e-43
2.14462e-13
-3.89936e-13
-4.08897e-12
-5.45216e-43
3.05275e-42
-1.14923e-27
3.53341e-29
4.73334e-30
9.34926e-32
4.74847e-36
-9.80661e-32
-3.80867e-33
0.00045649
-8.04349e-08
2.98153e-07
-1.26722e-27
1.00293
1.00828
1.01211
1.00307
1.00796
1.00022
1.00185
0.999626
0.999683
0.999808
0.999572
0.999981
0.999882
1.00002
1.00002
1.00001
1.00003
1
1.00001
0.999999
0.999999
0.999999
0.999998
1
0.999999
1
1
1
1
1
1
1
1
1
1
1
1
1
1
1
1
1
1
1
1
1
1
1
1
1
1
1
1
1
1
1
1
1
1
1
1
1
1
1
1
1
1
1
1
1
1
1
1
1
1
1
1
1
1
1
1
1
1
1
1
1
1
1
1
1
1
1
1
1
1
1
1
1
1
1
1
1
1
1
1
1
1
1
1
1
1
1
1
1
1
1
1
1
1
1
1
1
1
1
1
1
1
1
1
1
1
1
1
1
1
1
1
1
1
1
1
1
1
1
1
1
1
1
1
1
1
1
1
1
1
1
1
1
1
1
1
1
1
1
1
1
1
1
1
1
1
1
1
1
1
1
1
1
1
1
1
1
1
1
0.295644
1
-9.73891e-44
0.113514
7.69896e-43
4.69716e-07
0.228572
5.73147e-09
-1.52917e-10
5.09899e-07
-2.28462e-08
-1.48807e-40
-4.41171e-10
-4.61399e-10
1.22951e-06
1.81555e-06
1.39007e-06
1.30012e-42
9.81926e-12
-2.44352e-12
3.97604e-09
2.70524e-07
-1.14247e-07
2.48088e-13
-2.60816e-14
-1.11927e-14
2.36451e-15
8.28915e-16
-3.02142e-17
-3.24681e-17
-2.49197e-18
4.69033e-19
1.15701e-19
6.26252e-21
-1.23103e-21
-2.38165e-22
-1.16123e-23
1.67442e-24
3.14365e-25
2.01638e-26
-9.58651e-28
-2.92656e-28
-2.59666e-29
-4.40715e-31
1.5517e-31
1.92042e-32
9.99298e-34
-2.80727e-35
-1.04625e-35
-9.12372e-37
-3.06818e-38
1.94772e-39
3.24627e-40
3.14326e-11
3.14055e-11
3.88873e-07
-0.00734108
2.96316e-41
-1.33063e-31
3.81142e-07
-3.28428e-36
-2.8123e-34
-0.000126951
2.19303e-41
-4.75463e-33
3.36478e-32
4.21399e-32
-1.49392e-31
1.7438e-31
5.4826e-30
5.00207e-29
3.34301e-29
9.04022e-29
-1.53385e-27
5.11568e-42
3.96744e-42
-1.20444e-26
4.71186e-26
-1.83397e-25
-1.44003e-23
7.82836e-24
-3.3216e-22
-1.63861e-20
-4.09987e-20
2.45984e-19
1.15546e-18
1.57261e-17
3.3686e-16
1.01674e-15
2.69001e-15
2.94904e-14
1.14193e-13
-1.64765e-13
3.4414e-13
-1.16208e-12
1.99333e-12
-1.14243e-12
7.45846e-12
-1.20947e-11
-1.10811e-10
-2.3925e-10
2.07166e-10
2.34721e-09
1.32495e-08
4.07292e-08
9.41804e-08
1.81715e-07
4.38964e-40
-7.04219e-40
1.25138e-33
1.58647e-33
-6.30799e-33
1
0.280546
1
1
1
1
1
1
1
1
1
1
1
1
1
1
1
1
1
1
1
1
1
1
1
1
1
1
0.999999
1
0.999999
0.999999
0.999999
0.999999
0.999999
0.999998
1.00001
1
1.00001
1.00001
0.999992
1
0.999978
0.999984
0.99998
0.999978
0.999982
0.999974
0.999994
0.999971
1.00007
1.00002
1.00026
1.00017
1.00047
1.00042
1.0005
1.0006
1.00017
1.00055
0.999107
1.00001
0.996581
0.998294
0.991649
0.994562
0.983179
0.987645
0.970481
0.977158
0.953542
0.961918
0.932177
0.942699
0.905148
0.918413
0.872337
0.887768
0.833698
0.851625
0.787772
0.808038
0.738283
0.759587
0.685845
0.708644
0.62977
0.653324
0.57399
0.596605
0.517602
0.540779
0.461913
0.484373
0.408926
0.430461
0.356284
0.377429
0.308539
0.326495
0.265825
0.282478
0.225249
0.240905
0.189539
0.202699
0.158006
0.169646
0.130825
0.141072
0.107237
0.11592
0.0874848
0.0948377
0.0701691
0.076512
0.0562821
0.0612148
0.0447683
0.0489584
0.0350675
0.0384611
0.0275709
0.0301568
0.0213836
0.0235437
0.0164099
0.0181153
0.0125722
0.0139039
0.00957688
0.0106262
0.0072198
0.00801898
0.00544443
0.00605569
0.00402898
0.00450531
0.00299423
0.00333474
0.00219756
0.00245835
0.00160481
0.00180033
0.0011688
0.00131232
0.000848463
0.000955459
0.000606602
0.000683743
0.000437036
0.000492665
0.00031034
0.00035148
0.000217666
0.000246982
0.000155246
0.000175331
0.000107692
0.000122661
7.51124e-05
8.51383e-05
5.20809e-05
5.92416e-05
3.61082e-05
4.11997e-05
2.47903e-05
2.82706e-05
1.70649e-05
1.95421e-05
1.14991e-05
1.32031e-05
7.91026e-06
9.04541e-06
5.39149e-06
6.20395e-06
3.62516e-06
4.17538e-06
2.44203e-06
2.80314e-06
1.66418e-06
1.92268e-06
1.11077e-06
1.29183e-06
0.000126296
0.000292128
0.000347145
0.000322973
0.756643
5.31505e-27
-1.21011e-26
-3.16958e-40
4.38398e-40
-1.82075e-10
-7.55164e-10
3.40929e-07
3.84214e-07
4.43041e-07
2.41691e-07
3.33986e-07
-2.1419e-40
-4.59434e-40
2.31882e-35
-3.72532e-34
4.18909e-42
4.57652e-42
4.25038e-41
2.12166e-13
4.92364e-13
-0.00272339
-0.00153449
-2.33558e-40
1.73042e-41
6.28268e-43
2.63541e-38
3.28511e-38
2.92457e-38
5.27026e-07
-5.94093e-11
1.34499e-11
-2.19393e-22
-6.62964e-23
-1.82289e-05
7.99566e-07
2.01139e-09
1.12693e-19
3.46326e-20
1.25407e-09
9.45513e-09
2.67109e-12
-1.53782e-12
-1.10889e-18
1.07297e-19
2.67832e-07
-9.9415e-17
-5.64485e-17
-4.41234e-12
-6.84274e-13
6.32415e-14
-2.88684e-14
-5.06477e-16
1.87655e-15
1.89955e-16
-7.86259e-17
-1.16848e-17
7.61164e-19
2.83077e-19
2.74926e-20
-5.89421e-22
-6.44337e-22
-5.03231e-23
6.96423e-25
8.11526e-25
9.66729e-26
1.51194e-27
-6.75056e-28
-9.77886e-29
-5.09405e-30
2.23238e-31
5.96693e-32
5.1144e-33
1.03173e-34
-2.2884e-35
-3.37556e-36
-2.02462e-37
-5.86797e-40
8.94051e-40
5.3279e-11
9.36247e-41
4.40349e-07
7.47995e-16
-7.4024e-16
-7.39251e-16
2.6952e-14
2.21719e-13
4.20934e-15
-6.49953e-15
7.34947e-07
0.935175
5.23425e-38
1.73126e-37
-3.87269e-36
-0.00740284
5.98034e-09
0.96961
5.93334e-27
7.9109e-41
0.80381
4.55574e-36
1.35393e-31
-2.8509e-31
-2.48367e-29
7.08932e-27
1.06244e-26
0.0569193
6.01911e-26
0.202537
-1.85522e-25
2.68401e-24
3.19274e-23
-1.72789e-22
4.50524e-21
2.92947e-20
1.87197e-20
-9.40695e-19
-9.54989e-19
-9.42226e-17
9.54973e-16
-1.05437e-15
-1.00602e-14
-7.12718e-14
-2.55197e-14
1.19475e-13
-2.37639e-14
-4.65957e-13
1.67911e-12
3.20952e-12
2.47321e-12
-4.50119e-11
-1.92809e-10
-2.03217e-10
8.89658e-10
6.12e-09
2.46364e-08
6.34268e-08
1.31739e-07
7.87644e-10
-7.70531e-06
-2.00856e-05
-3.86177e-06
3.8407e-38
7.04991e-05
3.362e-06
0.266977
2.0055e-07
1.02866e-07
4.4071e-08
1.40498e-08
2.36679e-09
1.45689e-10
-2.74809e-10
-1.17474e-10
-1.05022e-11
8.542e-12
-1.0606e-12
1.9535e-12
-1.22091e-12
3.72155e-13
-1.74939e-13
1.13145e-13
3.2164e-14
3.56734e-16
1.74228e-17
9.26467e-40
3.06034e-39
-1.44182e-37
-2.99511e-36
-6.84237e-22
-2.73552e-35
4.03236e-37
4.03194e-33
5.82091e-32
3.6209e-31
-3.14172e-30
-8.83004e-29
-7.70946e-28
-7.36893e-28
7.96977e-26
8.57183e-25
1.44615e-07
6.88722e-08
2.63325e-08
6.25569e-09
8.46214e-10
-2.62585e-10
-2.12002e-10
-4.52376e-11
4.20004e-12
3.30658e-12
1.9907e-12
-7.07316e-13
6.79022e-14
9.43127e-14
-1.05808e-14
-7.49648e-14
-1.11623e-14
-0.000567361
-0.00980062
-1.025e-15
-1.05083e-16
-8.83952e-19
-1.00608e-18
-1.01185e-20
2.86737e-20
5.46847e-21
5.51646e-17
-1.74194e-22
3.14536e-23
3.58016e-24
-5.45512e-31
3.30181e-36
1.11123e-31
2.96753e-40
2.47371e-39
-1.4041e-38
-7.41357e-37
-1.03303e-35
-5.30944e-35
6.1552e-34
1.69162e-32
1.72362e-31
1.59431e-31
-2.02261e-29
-2.90291e-28
-1.52576e-27
1.16537e-26
2.99961e-25
2.12266e-24
2.32336e-15
3.56824e-15
-1.6232e-23
2.46768e-21
-4.75605e-24
-2.22789e-12
6.68036e-19
-3.30409e-14
-3.48991e-17
-1.66356e-14
-6.206e-14
-9.8874e-18
3.2398e-19
-2.12492e-21
-1.60178e-21
2.89162e-24
9.40206e-19
3.24927e-19
-3.3261e-20
-1.75752e-20
-5.78205e-22
2.24901e-23
-3.96188e-25
4.95584e-29
7.36594e-30
2.49649e-31
3.9039e-35
-2.90297e-29
-1.70511e-25
2.97954e-15
-2.2925e-05
-3.03872e-12
0.000244632
1.00755
1.00503
1.00848
1.00124
1.00397
0.999701
1.00032
0.999651
0.999415
0.999889
0.999679
1.00001
0.99995
1.00002
1.00003
1.00001
1.00002
1
1
0.999999
0.999998
0.999999
0.999999
1
1
1
1
1
1
1
1
1
1
1
1
1
1
1
1
1
1
1
1
1
1
1
1
1
1
1
1
1
1
1
1
1
1
1
1
1
1
1
1
1
1
1
1
1
1
1
1
1
1
1
1
1
1
1
1
1
1
1
1
1
1
1
1
1
1
1
1
1
1
1
1
1
1
1
1
1
1
1
1
1
1
1
1
1
1
1
1
1
1
1
1
1
1
1
1
1
1
1
1
1
1
1
1
1
1
1
1
1
1
1
1
1
1
1
1
1
1
1
1
1
1
1
1
1
1
1
1
1
1
1
1
1
1
1
1
1
1
1
1
1
1
1
1
1
1
1
1
1
1
1
1
1
1
1
1
-6.63694e-19
-3.89733e-10
4.98268e-38
-4.01617e-13
-5.62379e-39
1.30553e-42
-3.86996e-29
-1.46106e-23
-3.189e-08
7.62025e-27
-5.38512e-23
-4.8468e-23
1.34618e-19
-2.75901e-22
-3.42168e-14
2.49433e-13
3.46171e-13
5.82305e-13
-1.08128e-17
-2.95215e-15
-2.31791e-17
-2.81254e-17
4.52078e-14
2.02256e-13
-3.06302e-14
-2.91941e-17
-4.90197e-17
-1.94353e-23
-1.47477e-14
-1.31279e-14
-1.02521e-15
-2.36393e-22
2.81212e-17
-2.51306e-17
4.83384e-12
-1.91861e-12
6.45571e-20
-2.94875e-19
2.12196e-19
-3.48957e-18
-2.83932e-18
3.65942e-07
8.51403e-21
3.71879e-35
-1.45975e-22
-3.51108e-22
-1.51401e-22
1.38094e-18
2.01833e-07
5.90584e-26
1.69663e-25
1.96667e-26
5.171e-28
-1.09997e-28
-1.73571e-29
-1.01347e-30
2.3829e-32
1.08328e-32
9.33979e-34
2.17968e-34
1.61779e-34
-1.85628e-22
-5.10825e-22
-2.60808e-36
-5.07984e-37
-3.3459e-38
-2.44996e-38
-7.88943e-11
0.568575
0.243387
5.6306e-07
-1.17835e-16
-1.59779e-15
4.91761e-35
1.60822e-15
-0.00767335
2.04772e-31
-1.43827e-08
2.7835e-07
4.04813e-07
-3.82638e-40
-2.11411e-25
1.71696e-40
4.31282e-36
7.17821e-35
8.98051e-30
-4.39115e-29
1.83658e-26
0.0253249
5.22487e-26
6.99739e-26
-1.88844e-25
-5.7341e-31
1.17463e-29
3.038e-20
2.84138e-20
3.93387e-24
-2.18235e-23
-3.55802e-25
5.26999e-24
-1.51053e-24