/*--------------------------------*- C++ -*----------------------------------*\
  =========                 |
  \\      /  F ield         | OpenFOAM: The Open Source CFD Toolbox
   \\    /   O peration     | Website:  https://openfoam.org
    \\  /    A nd           | Version:  7
     \\/     M anipulation  |
\*---------------------------------------------------------------------------*/
FoamFile
{
    version     2.0;
    format      ascii;
    class       volScalarField;
    location    "0.96";
    object      T;
}
// * * * * * * * * * * * * * * * * * * * * * * * * * * * * * * * * * * * * * //

dimensions      [0 0 0 1 0 0 0];

internalField   nonuniform List<scalar> 
46572
(
-1.99216e-44
-2.13181e-43
4.4384e-41
3.24866e-41
-1.43501e-39
-3.05215e-39
-1.76636e-38
2.7926e-38
-6.38958e-38
3.75543e-37
-9.93625e-38
1.0198e-36
-1.27078e-39
6.7689e-37
1.98212e-37
-2.21046e-36
3.31737e-37
-6.75275e-36
-8.54061e-37
-1.12067e-35
-5.68079e-36
-9.97896e-36
-1.24009e-35
2.73356e-35
5.14271e-35
2.20662e-34
5.5944e-34
6.66276e-34
2.90062e-33
1.01578e-33
1.08406e-32
-1.50494e-33
3.06329e-32
-1.52631e-32
8.31792e-32
-6.26117e-32
2.01482e-31
-2.74669e-31
3.53084e-31
-6.13053e-31
4.77056e-31
-1.01293e-30
5.48569e-31
-1.26987e-30
5.50348e-31
-1.32222e-30
5.35533e-31
-1.25886e-30
5.2719e-31
-1.18913e-30
5.43205e-31
-1.19958e-30
5.88384e-31
-1.26182e-30
6.44434e-31
-1.42557e-30
6.7851e-31
-1.56094e-30
6.45661e-31
-1.55361e-30
5.87046e-31
-1.40893e-30
5.32731e-31
-1.21558e-30
5.01421e-31
-1.17046e-30
4.80302e-31
-1.19362e-30
4.40522e-31
-1.09769e-30
3.81059e-31
-9.64038e-31
3.09136e-31
-8.53628e-31
2.15232e-31
-5.76349e-31
1.3183e-31
-3.52008e-31
6.86861e-32
-1.88344e-31
2.59275e-32
-6.40982e-32
7.39232e-33
-1.29504e-32
1.16285e-33
1.84294e-33
6.52596e-35
1.28691e-33
-7.84715e-36
2.19443e-34
-7.85712e-36
2.0762e-35
-1.7104e-36
-4.71966e-36
3.34173e-38
-2.69524e-36
2.09997e-38
-8.33601e-38
0
2.96054e-38
0
0
0
0
0
0
0
0
0
0
0
0
0
0
0
0
0
0
0
0
0
0
0
0
0
0
0
0
0
0
0
0
0
0
0
0
0
0
0
0
0
0
0
0
0
0
0
0
0
0
0
0
0
0
0
0
0
0
0
0
0
0
0
0
0
0
0
0
0
0
0
0
0
0
0
0
0
0
0
0
0
0
0
0
0
0
0
0
0
0
0
0
0
0
0
0
0
0
0
0
0
0
0
0
0
0
0
0
0
0
0
0
0
0
0
0
0
0
0
0
0
0
0
0
0
0
0
0
0
0
0
0
0
0
0
0
0
0
0
2.68952e-139
0
4.45538e-135
5.54862e-135
3.9672e-134
4.13395e-134
-7.56472e-132
-1.22985e-131
-6.64443e-124
-2.67041e-128
-2.6671e-120
-3.28191e-120
1.15449e-117
1.44683e-117
-1.86593e-113
-5.68782e-115
-6.20398e-111
-6.73756e-111
-5.34616e-110
-6.28964e-110
-1.75223e-108
7.94285e-108
-2.20726e-108
4.0312e-108
-2.13179e-108
1.73913e-108
1.87959e-106
6.90429e-107
7.66108e-104
8.59577e-104
2.59812e-103
3.13528e-103
1.89841e-103
2.44168e-103
3.41929e-102
-1.06519e-101
2.75017e-100
2.9868e-100
2.54427e-99
2.24034e-99
1.22135e-97
6.315e-98
-1.21288e-98
-1.02216e-96
6.59067e-96
-7.54713e-95
6.17232e-94
-1.62339e-93
1.0896e-92
1.79099e-93
1.07424e-92
5.41793e-93
1.34808e-92
-1.71496e-92
7.7081e-92
-9.67849e-92
3.03065e-90
2.63982e-90
1.96328e-90
1.51313e-90
4.2606e-90
-9.38134e-90
1.51078e-89
-2.47283e-91
1.892e-89
1.00148e-89
1.71346e-89
6.35155e-90
1.80697e-89
-7.27943e-90
6.97378e-89
6.04006e-89
1.26697e-88
8.56985e-89
9.13928e-89
6.01967e-89
8.80873e-89
3.6632e-89
1.17367e-87
7.90767e-88
8.92919e-88
2.20161e-88
7.55162e-88
-5.73636e-89
6.79002e-88
-2.87779e-88
5.80412e-88
-2.29237e-88
2.20911e-87
-2.31704e-87
2.54784e-87
-2.45457e-87
2.66548e-86
2.22603e-87
5.55982e-86
4.60046e-86
3.77101e-86
2.90454e-86
3.57476e-86
-1.19846e-86
6.90671e-86
1.7507e-86
1.03014e-85
9.71355e-87
1.76854e-85
-2.20205e-86
2.04031e-85
-1.25672e-85
8.18121e-85
6.0879e-85
5.62237e-85
4.01257e-85
4.36761e-85
8.51875e-86
5.65314e-85
3.70747e-85
4.10663e-85
2.44848e-85
3.57803e-85
-1.7243e-86
1.3348e-84
1.11928e-84
8.99775e-85
7.1339e-85
7.38627e-85
8.46084e-86
9.90794e-85
3.22753e-85
9.93513e-85
5.99173e-85
7.92948e-85
4.06568e-85
6.81774e-85
1.07836e-85
1.29295e-84
1.14665e-84
1.07682e-84
9.56555e-86
1.08777e-84
4.62924e-85
7.86206e-85
3.28915e-85
5.73796e-85
2.6413e-85
4.55673e-85
7.04242e-86
5.63232e-85
2.19711e-85
1.0745e-84
8.56917e-85
1.38651e-84
1.01469e-84
9.86349e-85
6.98503e-85
6.98098e-85
4.51166e-85
9.00281e-85
3.42456e-85
1.12942e-84
8.7111e-85
7.6984e-85
5.47927e-85
5.84579e-85
2.31677e-85
5.60311e-85
2.52211e-85
4.3149e-85
1.67679e-85
3.25818e-85
1.3214e-85
2.62163e-85
2.01234e-86
3.37677e-85
1.62348e-85
4.62754e-85
6.62477e-86
3.56036e-85
6.79819e-86
2.69989e-85
6.40357e-86
2.03984e-85
5.54924e-86
2.8506e-85
5.0446e-86
3.60659e-85
2.41186e-85
2.4686e-85
1.60381e-85
1.84081e-85
7.83148e-86
1.66947e-85
8.42207e-86
1.44031e-85
9.11625e-86
1.11519e-85
5.70842e-86
1.03915e-85
-2.43636e-86
9.24917e-86
9.64222e-88
1.20622e-85
-6.38294e-86
1.21819e-85
-6.72193e-86
1.19365e-85
-8.01306e-87
1.0852e-85
-4.28249e-86
1.11637e-85
-1.32149e-85
2.50485e-85
-2.4887e-85
2.80461e-85
-4.71741e-85
4.7891e-85
-8.3953e-85
7.65702e-85
-1.10723e-84
9.23524e-85
-1.03183e-84
1.00293e-84
-1.09105e-84
1.16058e-84
-1.22038e-84
1.26359e-84
-1.24721e-84
1.41874e-84
-1.25906e-84
1.44213e-84
-1.11016e-84
1.34111e-84
-8.16037e-85
1.26641e-84
-7.84286e-85
1.17609e-84
-7.471e-85
1.11764e-84
-7.93216e-85
1.29345e-84
-1.30221e-84
1.44861e-84
-9.70792e-85
1.5222e-84
-1.09904e-84
1.44332e-84
-1.01673e-84
1.61995e-84
-1.13143e-84
1.65935e-84
-8.06333e-85
1.55503e-84
-1.11771e-84
1.61317e-84
-1.09967e-84
1.5046e-84
-9.91087e-85
1.49062e-84
-1.24335e-84
1.60068e-84
-1.50282e-84
1.74593e-84
-1.44849e-84
1.67734e-84
-1.39475e-84
1.61767e-84
-1.3357e-84
1.69902e-84
-1.37561e-84
1.47081e-84
-8.59269e-85
1.29005e-84
-6.36429e-85
8.65265e-85
-3.43277e-85
4.3577e-85
-6.59557e-85
4.71734e-85
-2.33136e-85
5.31181e-86
7.90674e-85
-4.94683e-85
9.75337e-85
-7.92159e-85
7.74618e-85
-1.02402e-84
1.27948e-84
-1.40405e-84
1.13134e-84
-1.83896e-84
5.19969e-85
-1.69275e-84
6.44014e-85
-1.68563e-84
8.3973e-85
-1.89863e-84
6.42722e-85
-1.72773e-84
5.50567e-85
-1.58693e-84
6.74317e-85
-1.66249e-84
3.31085e-85
-1.36514e-84
5.57482e-85
-1.25048e-84
4.875e-85
-1.10038e-84
4.72356e-85
-9.44773e-85
4.33307e-85
-8.00687e-85
3.08356e-85
-6.74471e-85
5.03434e-86
-4.47588e-85
1.00811e-85
-4.43063e-85
-1.61126e-86
-1.88125e-83
3.39378e-84
-1.52404e-82
6.10361e-83
-5.01134e-83
1.15906e-81
-2.55162e-80
-7.60874e-81
3.63403e-79
6.84739e-79
3.01715e-79
-1.52238e-78
6.04726e-77
2.87841e-77
-6.95088e-75
1.85971e-75
4.29411e-73
-1.41364e-73
2.80319e-72
1.61182e-72
3.26085e-71
1.80164e-71
4.25247e-70
-2.8273e-70
2.48286e-69
7.66263e-70
-3.27867e-69
-2.43284e-67
1.65742e-66
6.90822e-67
9.52913e-65
-4.28786e-65
9.62255e-66
-7.69895e-64
-1.16252e-62
-1.72329e-62
-2.09863e-61
-5.42229e-62
-1.44222e-60
-0.000716829
-0.000226642
-1.74446e-05
-5.20371e-07
2.74337e-08
2.49189e-09
5.32811e-11
-6.91201e-13
-4.41027e-14
-6.54084e-16
-2.19782e-18
-2.80614e-20
1.7679e-22
3.60912e-23
-1.47583e-25
-7.29425e-27
-1.30939e-29
1.82935e-31
6.2369e-34
-2.12637e-36
-2.86856e-38
2.40156e-40
-3.31572e-43
-6.51313e-45
5.33846e-47
-2.33174e-49
1.0923e-51
-4.53516e-54
-2.32341e-56
4.57596e-58
-0.000722352
1.80578e-13
-3.62181e-12
2.72832e-11
6.08423e-11
-1.70758e-11
-4.11532e-11
5.08873e-10
1.15983e-09
-1.68103e-09
-9.73276e-09
-1.03349e-08
2.80869e-08
8.33447e-08
-7.60112e-08
-1.03148e-06
-3.43855e-06
-6.488e-06
-3.92789e-06
2.2243e-05
0.000110665
0.00034068
0.000835695
0.00176873
0.00340892
0.00602707
0.0099894
0.015562
0.0231918
0.0330703
0.0449234
0.0585854
0.0752713
0.0929477
0.111421
0.129378
0.146305
0.163028
0.175761
0.183446
0.188048
0.186415
0.17954
0.168809
0.150166
0.132525
0.110319
0.0866472
0.0620586
0.037067
0.0138558
-0.00733905
-0.0256961
-0.0427182
-0.0560729
-0.064084
-0.0716592
-0.0748795
-0.0751987
-0.073571
-0.0676453
-0.0647242
-0.0595655
-0.0528506
-0.0468915
-0.0411905
-0.0360477
-0.031016
-0.0251094
-0.0212639
-0.0173482
-0.0138101
-0.011023
-0.0088335
-0.00686112
-0.0052719
-0.00394704
-0.00307353
-0.00232013
-0.00179339
-0.00106242
-0.000720529
9.82117e-14
3.4933e-14
-8.40716e-14
-1.3796e-14
1.03179e-13
-1.06649e-12
-1.40555e-13
-1.16081e-12
-8.37241e-13
3.67285e-12
3.10896e-12
-2.22861e-12
-1.22908e-13
7.78004e-14
-1.01598e-14
5.62094e-14
-2.7725e-14
-1.00207e-13
2.63112e-13
-1.81851e-13
1.14027e-13
-6.95489e-14
-1.75828e-13
5.6103e-13
3.46152e-13
-4.34501e-13
-1.90374e-14
3.19078e-13
-2.5706e-13
5.6902e-13
6.6592e-13
-1.16307e-13
1.91497e-13
-3.24085e-13
-1.62057e-13
-6.20775e-13
-3.83441e-13
1.79637e-13
-2.88354e-13
-3.71619e-13
2.15157e-13
-2.32161e-13
-9.29774e-13
-1.57366e-12
-7.03784e-13
9.57276e-13
7.73619e-13
1.59981e-12
-3.54207e-13
2.88335e-12
3.21716e-12
-1.64451e-12
1.27898e-12
5.02083e-13
-4.65904e-13
-5.01383e-12
-2.48523e-12
-2.15038e-12
-3.81469e-12
1.19546e-12
-5.36613e-12
5.48459e-12
4.20563e-13
-1.55643e-13
2.21602e-12
-4.03534e-12
-8.47879e-12
-1.94526e-11
-1.01048e-11
-2.74778e-11
-1.23259e-11
-2.7507e-11
-7.41311e-12
-3.97886e-11
2.19191e-12
-7.11877e-11
-9.5614e-12
-1.38658e-10
-4.48502e-11
-1.9768e-10
-1.21262e-10
-1.85932e-10
-2.18425e-10
-5.28474e-11
-2.51319e-10
3.16238e-10
-1.31233e-10
8.44641e-10
1.44571e-10
1.23442e-09
4.79615e-10
1.02055e-09
5.16791e-10
-4.47969e-10
-4.44592e-10
-3.48545e-09
-2.92953e-09
-7.40492e-09
-7.416e-09
-1.00803e-08
-1.34545e-08
-7.86927e-09
-1.89502e-08
4.87571e-09
-1.97649e-08
3.42643e-08
-1.24327e-08
8.2883e-08
9.06897e-09
1.43585e-07
4.2177e-08
1.98472e-07
7.55537e-08
2.05183e-07
8.64455e-08
1.18415e-07
1.65193e-08
-1.43825e-07
-2.07248e-07
-6.34595e-07
-6.84881e-07
-1.35629e-06
-1.50977e-06
-2.16642e-06
-2.76623e-06
-2.72077e-06
-4.48805e-06
-2.23858e-06
-6.47176e-06
6.36836e-07
-8.14469e-06
8.15415e-06
-8.84717e-06
2.38731e-05
-6.69135e-06
5.2155e-05
7.42499e-07
0.000100274
1.61357e-05
0.000176271
4.66302e-05
0.000295092
9.44037e-05
0.000465308
0.000177186
0.000709161
0.000293727
0.00105344
0.000470168
0.00150644
0.000715899
0.00210654
0.00103653
0.00291157
0.00147537
0.00391139
0.00206326
0.0051569
0.00277205
0.0067383
0.00369054
0.00858961
0.00480076
0.0108081
0.00609214
0.0135145
0.00767821
0.0164514
0.00954556
0.0201023
0.011684
0.0243062
0.0143698
0.0288341
0.017246
0.0340065
0.0203249
0.03936
0.0238366
0.045773
0.0276143
0.0523836
0.0319572
0.0592656
0.0361513
0.0672121
0.0409991
0.0746891
0.0457402
0.0825192
0.050246
0.0913138
0.0552543
0.0985597
0.0600394
0.107541
0.0649428
0.116607
0.0709642
0.12446
0.0758676
0.132487
0.0799006
0.138879
0.0838911
0.146559
0.0870827
0.152213
0.0906126
0.156856
0.0920779
0.162693
0.0946092
0.16505
0.0949346
0.166565
0.0940175
0.169322
0.0939751
0.169565
0.0932196
0.167659
0.0896072
0.166282
0.0870231
0.162515
0.0828277
0.158494
0.0770299
0.151955
0.0710328
0.14647
0.0641091
0.138654
0.0575075
0.129833
0.0485531
0.12166
0.0412074
0.110969
0.0313371
0.0999975
0.0211951
0.0897935
0.0123734
0.0784609
0.00318041
0.0667443
-0.00739754
0.0554278
-0.0162908
0.0437579
-0.0264572
0.0323747
-0.0361676
0.0210451
-0.0447576
0.0103888
-0.0533831
0.000514491
-0.0615587
-0.00995093
-0.0687104
-0.0196727
-0.0756304
-0.0283573
-0.0822063
-0.0357906
-0.0876175
-0.043037
-0.0929404
-0.0501939
-0.0970163
-0.0546982
-0.100505
-0.0617084
-0.102979
-0.0643836
-0.10495
-0.0670923
-0.105804
-0.0715319
-0.107113
-0.0734942
-0.107256
-0.0735812
-0.106134
-0.0755125
-0.105169
-0.0758073
-0.103519
-0.0755767
-0.101411
-0.0738672
-0.0986032
-0.0729302
-0.0960285
-0.0716008
-0.0927701
-0.0687829
-0.0889242
-0.0680136
-0.0856837
-0.0642955
-0.0813452
-0.0610226
-0.0769185
-0.0591655
-0.0733524
-0.0565432
-0.069591
-0.0526383
-0.0651388
-0.0502924
-0.0613536
-0.0471738
-0.057313
-0.0441351
-0.0533366
-0.0407979
-0.0493111
-0.0379333
-0.045833
-0.0352127
-0.0422386
-0.0320411
-0.0384125
-0.0291192
-0.0348395
-0.0268519
-0.0320679
-0.0246324
-0.0293581
-0.0227931
-0.0269954
-0.0208534
-0.0246162
-0.0185845
-0.0221066
-0.0171371
-0.0200703
-0.0152143
-0.0178838
-0.0134698
-0.0159242
-0.0122161
-0.0142924
-0.0106549
-0.0125559
-0.00955252
-0.0112441
-0.00863272
-0.0101171
-0.00765792
-0.00898358
-0.00679083
-0.00794546
-0.0059437
-0.00699187
-0.00527413
-0.00618974
-0.00465909
-0.00543632
-0.00401822
-0.00472393
-0.00358155
-0.00416899
-0.00309843
-0.00362581
-0.00270895
-0.00315618
-0.00241474
-0.00276633
-0.00208004
-0.0023676
-0.00171955
-0.00200334
-0.00146919
-0.00178866
-0.00152779
-0.00114664
-0.00162804
-3.79914e-17
4.29971e-16
4.37876e-14
1.6405e-12
1.79959e-11
-1.67224e-10
6.03777e-09
3.81476e-07
1.15703e-05
1.27583e-06
0.000137741
9.6052e-05
2.84184e-05
-1.03108e-40
-2.81632e-34
-2.06526e-30
-5.73427e-28
1.56531e-26
-9.27073e-25
4.10622e-24
1.63062e-23
1.39347e-23
-1.76376e-23
-4.79036e-24
2.56784e-23
4.24564e-23
2.92596e-23
4.56407e-24
2.42192e-23
-2.19782e-23
8.84106e-24
-4.40979e-24
5.25566e-24
-5.59998e-23
-1.07546e-22
-7.86775e-23
-1.60819e-23
2.36273e-23
-1.26147e-22
-1.57368e-22
-4.42129e-22
-6.38366e-22
-4.71853e-22
-4.26555e-22
-4.12256e-22
-2.43913e-22
-3.30219e-22
-7.25622e-22
-1.41958e-21
-1.56541e-21
-1.46269e-21
-7.72658e-22
-1.73318e-22
6.37448e-22
8.99825e-22
6.16906e-22
-1.61129e-22
-9.45909e-22
-2.39854e-21
-2.96305e-21
-3.25e-21
-3.04031e-21
-1.89747e-21
-7.29206e-22
4.3135e-22
1.10004e-21
1.86338e-21
1.98583e-21
1.90628e-21
1.74767e-21
1.27866e-21
9.43812e-22
6.31429e-22
3.0118e-22
1.09388e-22
-3.05573e-23
-1.06215e-22
-1.32168e-22
-1.06119e-22
-1.02333e-22
-8.72197e-23
-5.69243e-23
-4.02236e-23
-2.40083e-23
-1.33522e-23
-1.15114e-23
-8.57855e-24
-1.02914e-23
-1.14484e-23
-9.11098e-24
-8.27927e-24
-8.85398e-24
-7.5598e-24
-5.66406e-24
-1.88349e-24
-1.49033e-24
-5.86705e-25
2.13231e-25
5.41699e-25
6.58137e-25
9.7264e-25
1.07242e-24
5.82069e-25
6.48208e-25
4.02054e-25
3.05053e-25
2.09716e-25
1.08786e-25
1.08761e-26
1.01517e-24
-2.57921e-23
3.34768e-20
-2.62821e-19
-1.72391e-60
3.73579e-06
2.85111e-06
0.00013365
7.45002e-05
-2.62009e-05
-6.18157e-07
3.06927e-08
-1.0405e-08
-4.42533e-10
-2.48411e-12
2.4042e-13
6.33855e-15
5.01678e-17
5.8177e-20
5.32294e-21
-1.99251e-22
-2.64912e-24
5.82335e-26
4.82118e-28
-1.20361e-30
-1.31275e-32
-8.69511e-36
3.64331e-37
-1.59316e-40
-1.82777e-41
1.35325e-43
-3.22372e-46
-1.6948e-48
2.53576e-50
-3.02086e-52
2.85493e-54
-2.11759e-56
2.09699e-14
9.46789e-59
1.75013e-12
1.18476e-11
6.25899e-11
4.91787e-11
-4.04171e-11
1.15384e-10
9.79934e-10
3.98127e-10
-5.2641e-09
-1.29176e-08
2.50111e-09
6.0375e-08
5.79734e-08
-4.0736e-07
-2.05627e-06
-5.06677e-06
-6.68142e-06
4.25561e-06
5.48929e-05
0.000202475
0.000541958
0.00122867
0.00248259
0.00454873
0.0077467
0.0125999
0.0189886
0.0275546
0.0387478
0.0516022
0.0670572
0.0836158
0.101151
0.121527
0.138047
0.155097
0.168307
0.177889
0.186722
0.18572
0.181193
0.173705
0.160296
0.142523
0.122494
0.0983882
0.0747864
0.0496722
0.0254966
0.00263086
-0.0172296
-0.034474
-0.0484635
-0.0587039
-0.0688595
-0.0712135
-0.0731145
-0.0734734
-0.0704299
-0.0664815
-0.0626353
-0.0551225
-0.0511225
-0.0441223
-0.0385477
-0.0327886
-0.0273663
-0.0230556
-0.0188064
-0.0151484
-0.0125853
-0.0097643
-0.00758727
-0.00594259
-0.00448296
-0.00349295
-0.00260302
-0.00201369
-0.00176057
2.2297e-14
-1.45741e-13
1.17709e-13
-1.12672e-13
1.73531e-13
2.64196e-14
6.42408e-13
2.21717e-12
-6.09379e-13
-5.70291e-13
2.26843e-12
1.44701e-13
-9.88664e-14
9.81224e-14
-6.43961e-14
1.8014e-13
-1.01607e-13
-1.02003e-14
8.10349e-14
-2.33131e-14
-1.87969e-12
-2.72088e-14
-4.48472e-15
-3.02935e-13
-7.27147e-12
-1.83999e-12
-1.13434e-10
-4.91617e-08
-2.38668e-06
-3.21831e-05
5.62611e-14
-3.35629e-37
-2.62561e-32
-4.31437e-29
-1.63452e-27
1.36917e-25
7.98926e-25
-1.19019e-23
-1.3547e-23
4.82749e-24
1.74237e-23
-1.17056e-23
-3.4366e-23
-2.15998e-23
-3.0619e-23
-3.49599e-23
6.74566e-24
-8.92493e-24
-3.13169e-23
-2.70394e-23
2.1276e-23
-7.18677e-23
-1.34124e-22
-9.20766e-23
-1.72673e-22
1.2187e-22
-6.99819e-23
-2.09865e-22
-7.66166e-23
-6.70733e-22
-9.79955e-22
-5.44678e-22
-3.64357e-22
-4.22556e-22
-6.70426e-22
-1.11402e-21
-1.42541e-21
-1.79078e-21
-1.42756e-21
-5.72388e-22
3.46261e-22
8.68245e-22
9.60751e-22
3.39988e-22
-1.15448e-21
-2.31004e-21
-3.23233e-21
-3.3452e-21
-3.5804e-21
-2.86425e-21
-1.65609e-21
-4.28069e-22
1.43742e-21
1.45261e-21
2.39042e-21
1.85369e-21
1.98988e-21
1.63522e-21
1.18672e-21
7.96203e-22
4.70753e-22
2.15104e-22
4.00768e-23
-7.05027e-23
-1.03228e-22
-1.44736e-22
-1.06599e-22
-8.98717e-23
-8.06004e-23
-4.55408e-23
-3.02633e-23
-1.81466e-23
-1.30628e-23
-1.09352e-23
-9.29034e-24
-8.65678e-24
-1.26133e-23
-7.42086e-24
-8.4985e-24
-7.53393e-24
-5.85579e-24
-5.2703e-24
-2.10431e-24
-9.72221e-25
-1.71583e-25
2.11283e-25
6.41908e-25
9.28924e-25
9.67409e-25
1.24651e-24
8.52596e-25
6.68806e-25
3.76879e-25
2.98105e-25
1.60161e-25
6.53205e-26
-3.62166e-27
-1.83147e-24
-2.32313e-21
1.10489e-18
-7.61744e-60
7.41316e-43
-6.2217e-10
1.51405e-12
4.62691e-13
8.91491e-15
5.72085e-17
1.36929e-20
8.46946e-21
-4.08183e-22
-4.26096e-24
9.86837e-26
7.84408e-28
-1.69739e-30
-2.04949e-32
-2.10678e-35
5.94465e-37
-1.71116e-40
-3.02497e-41
2.26089e-43
-4.89612e-46
-3.08894e-48
4.58758e-50
-5.45262e-52
5.36039e-54
-4.2397e-56
2.46596e-58
-1.03935e-11
1.43494e-11
2.2495e-11
-8.85568e-11
-4.04425e-11
6.62767e-10
1.3279e-09
-2.03492e-09
-9.991e-09
-5.49136e-09
4.36493e-08
1.08067e-07
-9.77941e-08
-1.29991e-06
-4.55506e-06
-1.00525e-05
-1.39588e-05
-3.5454e-06
5.21483e-05
0.000211196
0.000563263
0.00124065
0.00244933
0.00436126
0.0073186
0.0112337
0.0166853
0.0236953
0.0315073
0.0411127
0.0519711
0.0627947
0.075497
0.0847505
0.0950925
0.102316
0.106046
0.109576
0.104042
0.0962882
0.0864904
0.0712747
0.053064
0.0350399
0.0122972
-0.00651281
-0.0286635
-0.0485597
-0.0652302
-0.0805423
-0.093188
-0.102625
-0.10826
-0.112095
-0.111203
-0.107914
-0.104002
-0.0973002
-0.0892409
-0.0820715
-0.0723387
-0.0647057
-0.0554424
-0.0483448
-0.0410307
-0.0341776
-0.0284058
-0.023179
-0.0186445
-0.0152236
-0.0118217
-0.00925834
-0.0072323
-0.00547539
-0.00421968
-0.00318084
-0.00244009
-0.00198199
3.14334e-13
2.18948e-13
5.59875e-13
4.11169e-13
2.06348e-13
7.28078e-13
3.36025e-13
-3.67332e-13
1.34849e-13
-7.45013e-14
6.75538e-14
3.92246e-15
-4.53375e-14
-3.23806e-14
1.06982e-13
-7.64003e-14
5.45297e-14
-2.06184e-14
-2.85263e-13
4.7413e-11
-2.44756e-10
5.54746e-09
4.76833e-07
1.90368e-05
9.17822e-39
2.18848e-29
1.81429e-27
-1.24495e-25
3.18856e-24
1.76518e-23
2.97171e-23
5.70149e-23
3.14039e-23
-2.67055e-23
-1.00171e-24
-1.0909e-23
-6.87832e-23
-2.75738e-23
-1.11306e-23
-2.14681e-23
-7.61381e-24
2.92879e-23
3.22253e-23
1.89275e-23
1.02411e-22
8.1507e-23
1.08271e-22
4.69335e-22
6.17521e-22
3.91647e-22
4.65202e-22
8.21857e-23
-2.52356e-22
6.71082e-22
5.35163e-22
6.1956e-22
9.58693e-22
7.89607e-22
1.44436e-22
-9.91384e-22
-1.6456e-21
-1.54787e-21
-1.19607e-21
1.52465e-22
1.5819e-21
2.7942e-21
3.08618e-21
2.84483e-21
1.64122e-21
2.76752e-22
-2.1166e-21
-3.35803e-21
-4.42493e-21
-4.28354e-21
-3.03408e-21
-3.4486e-21
-1.34844e-21
-1.22282e-21
-1.7794e-22
3.52947e-22
5.3425e-22
6.00484e-22
5.43022e-22
4.37401e-22
3.51302e-22
2.36924e-22
1.75879e-22
3.79598e-23
3.27174e-23
6.4052e-24
-1.72122e-23
-1.76206e-23
-1.17277e-23
-5.79876e-24
2.80628e-24
1.02373e-23
1.73416e-23
1.57368e-23
1.08536e-23
1.61864e-23
7.33074e-24
4.67569e-24
3.57e-24
-1.33601e-24
6.89755e-25
4.85949e-25
-9.84049e-25
-1.38384e-24
-1.01176e-24
-1.30679e-24
-1.73521e-24
-5.51911e-25
-1.21207e-24
-6.10178e-25
-5.15801e-26
-6.51937e-26
1.02483e-25
1.62143e-25
2.51994e-25
-4.84646e-24
2.6952e-22
-2.61185e-19
-7.23249e-14
-8.60618e-16
-1.35692e-18
-5.36821e-20
7.32076e-22
6.38938e-23
-3.1267e-25
-1.17604e-26
-2.22672e-29
2.71729e-31
9.55799e-34
-2.8594e-36
-4.7713e-38
3.9425e-40
-5.76341e-43
-1.0691e-44
8.77145e-47
-3.89358e-49
2.05152e-51
-9.54514e-54
-3.86393e-56
9.25595e-58
-9.75281e-12
4.17517e-12
2.65063e-11
-2.26705e-11
-1.38918e-10
2.41046e-10
1.18358e-09
5.44139e-10
-6.03098e-09
-1.12883e-08
1.16802e-08
8.28542e-08
7.19967e-08
-5.14578e-07
-2.63092e-06
-7.08516e-06
-1.27014e-05
-1.15294e-05
1.55597e-05
0.00011454
0.000354367
0.000846676
0.00177532
0.00329754
0.00567983
0.00913474
0.0138137
0.0199856
0.027617
0.0361152
0.0468055
0.0577002
0.0690456
0.0804096
0.0898322
0.0998081
0.105409
0.107823
0.108011
0.101744
0.0924136
0.0805846
0.061402
0.0447623
0.0245364
0.00292156
-0.0174602
-0.0377905
-0.0569156
-0.0733687
-0.0872904
-0.0983962
-0.105892
-0.110393
-0.112386
-0.110078
-0.10619
-0.101344
-0.0925538
-0.0857893
-0.0773459
-0.0683298
-0.0598045
-0.0517818
-0.0449709
-0.0379565
-0.0310536
-0.0259318
-0.0210457
-0.016885
-0.0133502
-0.0106235
-0.00823919
-0.00634861
-0.0047834
-0.003698
-0.00280099
-0.00215741
-2.3974e-13
-1.9482e-13
-5.41092e-13
-1.69627e-13
-8.40302e-13
1.327e-13
4.33777e-13
-3.03246e-12
2.93183e-13
3.75174e-14
-3.47129e-14
1.34308e-14
1.06605e-13
-1.00261e-13
4.87531e-14
5.6184e-15
-6.32832e-15
-4.66863e-15
-4.9343e-13
-1.48947e-11
-7.22002e-11
6.21873e-10
-5.68137e-08
-3.38762e-06
-7.97709e-05
3.99547e-31
3.0761e-28
-1.20423e-27
-5.50545e-26
-1.03324e-23
-2.51738e-23
-4.72629e-23
-8.11461e-23
1.08722e-24
1.05403e-23
7.84729e-24
2.82984e-23
1.19838e-22
4.92266e-23
-1.51593e-23
-4.31728e-24
-7.71853e-24
3.14726e-23
-3.00469e-23
5.74703e-23
1.2358e-22
1.93689e-22
6.45984e-22
1.449e-22
2.73842e-22
2.88684e-22
-2.77292e-22
2.80562e-22
1.22194e-21
6.62872e-22
8.04069e-22
1.02134e-21
1.53036e-21
8.89298e-22
-1.93765e-22
-6.00725e-22
-7.27045e-22
-1.70444e-21
-3.01745e-22
4.64727e-22
2.05516e-21
3.26444e-21
3.56946e-21
2.44157e-21
1.31158e-21
-6.29984e-22
-2.25281e-21
-3.49033e-21
-4.14617e-21
-3.88256e-21
-3.31433e-21
-1.99274e-21
-1.15908e-21
-8.31347e-22
1.56169e-22
3.0708e-22
5.69093e-22
6.09174e-22
4.31615e-22
3.71377e-22
2.68113e-22
1.85298e-22
7.24193e-23
4.48516e-23
9.37075e-24
-1.35339e-23
-2.13398e-23
-2.18263e-23
-1.11442e-23
-3.36854e-25
2.37382e-24
9.23608e-24
9.92703e-24
9.05572e-24
1.09537e-23
6.0855e-24
1.72356e-24
1.83225e-24
5.34811e-26
2.83723e-24
-2.5327e-25
-8.67484e-25
-6.14361e-25
-2.72476e-25
-5.62706e-25
-1.05107e-24
-8.30714e-25
-1.41597e-24
-5.40645e-25
8.36749e-26
-1.58357e-25
9.48812e-26
1.44143e-25
2.30619e-25
2.12958e-25
8.63721e-24
1.8288e-20
-6.84706e-08
5.84172e-11
4.14123e-09
7.23848e-08
-2.03149e-08
-4.9406e-15
-6.02636e-12
5.69928e-14
4.66417e-16
3.31136e-16
3.15015e-12
1.52581e-35
6.52968e-33
3.23655e-41
6.74293e-38
-6.7727e-37
-6.00687e-36
-8.30924e-36
4.7908e-35
-2.17018e-35
4.79074e-34
-1.15419e-35
9.41343e-34
5.53266e-35
-2.39359e-34
1.52361e-34
-2.98991e-33
2.36786e-34
-5.61635e-33
2.8897e-34
-7.00973e-33
1.16982e-34
-8.5786e-33
-1.22498e-33
-1.04884e-32
-5.49041e-33
3.9306e-33
-1.06479e-32
1.05349e-31
4.5057e-33
3.19556e-31
9.18468e-32
6.06137e-31
4.91591e-31
1.15016e-30
2.24208e-30
-1.72676e-30
5.23869e-30
-2.34223e-29
8.75478e-30
-5.81412e-29
1.09064e-29
-8.79232e-29
1.14169e-29
-9.66983e-29
1.08775e-29
-8.96617e-29
1.037e-29
-8.43032e-29
1.05841e-29
-8.49008e-29
1.11256e-29
-8.73175e-29
1.23875e-29
-9.31999e-29
1.3531e-29
-1.06868e-28
1.36051e-29
-1.16406e-28
1.21613e-29
-1.07766e-28
1.0452e-29
-8.40186e-29
1.00299e-29
-7.70659e-29
1.01622e-29
-7.98925e-29
9.42707e-30
-8.09756e-29
8.40487e-30
-7.55988e-29
7.37961e-30
-6.8008e-29
4.99946e-30
-5.15498e-29
3.00674e-30
-3.02042e-29
1.53446e-30
-1.4383e-29
5.03925e-31
-3.87849e-30
9.36939e-32
-4.62792e-32
-8.59922e-33
3.39559e-31
-5.12312e-33
-7.83147e-32
4.42408e-34
-1.19392e-31
5.25333e-34
-3.85192e-32
1.36955e-34
-5.45811e-33
1.57346e-35
-5.97433e-36
-2.19038e-36
1.74285e-34
-2.28519e-37
-5.32154e-36
2.00464e-38
-1.37113e-36
-8.69743e-44
9.13679e-38
-5.93496e-45
5.16338e-41
0
-9.46218e-44
0
0
0
0
0
0
0
0
0
0
0
0
0
0
0
0
0
0
0
0
0
0
0
0
0
0
0
0
0
0
0
0
0
0
0
0
0
0
0
0
0
0
0
0
0
0
0
0
0
0
0
0
0
0
0
0
0
0
0
0
0
0
0
0
0
0
0
0
0
0
0
0
0
0
0
0
0
0
0
0
0
0
0
0
0
0
0
0
0
0
0
7.16741e-16
0
0
0
0
0
0
0
0
0
0
0
0
0
0
0
0
0
0
0
0
0
0
0
0
0
0
0
0
0
0
0
0
0
0
0
0
0
0
3.93444e-137
0
6.50947e-133
8.10068e-133
1.56433e-132
1.13165e-132
5.97428e-128
-1.18821e-129
-3.97952e-120
-4.91724e-120
-4.64591e-118
-5.7538e-118
2.69458e-115
1.7514e-116
-2.2426e-111
-5.41325e-112
-6.07015e-109
-7.08167e-109
-1.91091e-107
2.42912e-108
1.10309e-104
1.54241e-104
6.82049e-105
1.05297e-104
3.99686e-105
6.85631e-105
2.49048e-104
8.93367e-105
9.55097e-102
1.13214e-101
1.35653e-101
1.37859e-101
4.19417e-101
9.58615e-102
1.08359e-98
1.2225e-98
5.02869e-98
5.98161e-98
2.273e-97
-3.12306e-97
5.13468e-95
2.96679e-95
-1.47677e-93
-1.68394e-93
2.43082e-93
-1.10931e-93
1.62554e-91
4.7863e-92
7.09113e-91
2.31134e-91
4.76563e-91
-3.61875e-91
4.45102e-90
-1.58127e-89
1.54042e-89
-1.72374e-90
1.32622e-88
7.53819e-89
1.27968e-88
4.51258e-90
1.49876e-87
9.0777e-88
2.05317e-87
1.38959e-87
1.51297e-87
8.42967e-88
1.68918e-87
-2.97469e-88
3.07609e-87
2.01127e-87
3.00279e-87
1.78369e-87
7.9721e-87
3.45007e-87
6.10359e-87
8.51755e-88
7.08587e-87
-2.14845e-87
8.09926e-86
8.21592e-86
1.06297e-85
-1.85341e-85
1.2128e-85
-1.36496e-85
1.37244e-85
-9.77005e-86
1.22005e-85
-1.09624e-85
5.17076e-85
-9.02227e-85
5.74113e-85
-4.98205e-85
2.89518e-84
1.81159e-84
2.39021e-84
1.28215e-84
1.86243e-84
7.7395e-85
5.29031e-84
2.0681e-84
6.61947e-84
3.16882e-84
1.09891e-83
-1.51909e-83
2.05287e-83
2.25933e-84
2.99989e-83
1.91281e-83
3.66206e-83
2.37155e-83
2.63123e-83
1.37991e-83
3.76289e-83
6.42533e-84
2.934e-83
3.01406e-84
2.40624e-83
-1.04684e-84
3.71698e-83
1.9005e-83
4.97746e-83
3.63565e-83
3.61606e-83
2.31286e-83
6.55003e-83
3.88769e-83
7.25912e-83
5.3213e-83
5.17559e-83
3.44929e-83
4.67293e-83
6.779e-84
5.54552e-83
3.19577e-83
4.11986e-83
1.73708e-83
8.94042e-83
4.95993e-83
6.67777e-83
3.39724e-83
4.81189e-83
2.77902e-83
3.42882e-83
1.50484e-83
3.64731e-83
2.16068e-83
3.43938e-83
1.93179e-83
3.56839e-83
2.25394e-83
4.86887e-83
1.22096e-83
3.55758e-83
7.59964e-84
2.80289e-83
5.62549e-84
4.75243e-83
2.68968e-83
3.47396e-83
1.78156e-83
2.54293e-83
1.37883e-83
2.82804e-83
1.39329e-83
2.54296e-83
1.23389e-83
2.01433e-83
5.79369e-84
1.51223e-83
3.45163e-84
1.58703e-83
8.00116e-84
1.37904e-83
-2.48123e-84
2.40035e-83
1.10792e-83
1.76741e-83
5.17621e-84
1.30767e-83
3.73656e-84
9.75096e-84
2.70174e-84
1.39388e-83
7.46507e-84
1.05916e-83
5.45183e-84
7.68202e-84
4.22567e-84
7.66031e-84
4.25664e-84
6.86949e-84
4.58197e-84
4.9931e-84
2.58248e-84
4.26763e-84
6.19304e-85
5.26697e-84
1.32169e-84
4.20972e-84
9.4657e-85
5.8698e-84
2.45882e-84
4.79491e-84
-1.49814e-85
3.48585e-84
-2.2633e-85
3.30251e-84
-2.79834e-84
4.33942e-84
-6.07631e-84
7.73626e-84
-1.00352e-83
1.04604e-83
-1.32043e-83
1.67587e-83
-1.88175e-83
2.32307e-83
-2.34695e-83
2.47868e-83
-1.96627e-83
2.61491e-83
-2.30298e-83
2.93175e-83
-2.04903e-83
3.09027e-83
-2.01135e-83
3.32068e-83
-1.75723e-83
3.25998e-83
-2.14552e-83
2.84938e-83
-1.81397e-83
2.7295e-83
-2.17021e-83
2.60086e-83
-2.30231e-83
2.65098e-83
-2.50419e-83
3.12051e-83
-2.10091e-83
3.05846e-83
-2.36232e-83
3.13998e-83
-2.40753e-83
3.02501e-83
-2.26671e-83
3.10537e-83
-1.83467e-83
2.95494e-83
-2.20107e-83
2.96467e-83
-1.83392e-83
2.79865e-83
-1.84908e-83
2.74024e-83
-2.15777e-83
2.68497e-83
-1.65929e-83
2.58367e-83
-1.7615e-83
2.25706e-83
-1.77743e-83
2.10602e-83
-1.37778e-83
1.68763e-83
-1.29391e-83
1.361e-83
-2.84384e-84
3.72423e-84
-4.48103e-84
2.22904e-84
-9.95855e-85
-1.09159e-83
3.87391e-84
-1.6762e-83
2.20486e-83
-2.18851e-83
2.01769e-83
-3.58222e-83
2.91808e-83
-4.47179e-83
3.11453e-83
-4.60093e-83
2.97176e-83
-4.97775e-83
3.71406e-83
-4.6673e-83
2.58165e-83
-4.5394e-83
3.13242e-83
-4.22876e-83
2.98751e-83
-4.16691e-83
2.26332e-83
-3.76623e-83
1.66371e-83
-3.26632e-83
1.5433e-83
-2.90918e-83
1.42014e-83
-2.49575e-83
1.17802e-83
-2.13849e-83
7.3352e-84
-1.49116e-83
5.64035e-84
-1.11819e-83
5.42526e-84
-8.56054e-84
1.74793e-84
-5.17439e-84
-1.00253e-84
-1.75873e-84
6.07284e-85
-6.54771e-85
-5.62728e-85
2.06828e-84
-2.38842e-84
9.82071e-83
-1.13542e-83
-7.13499e-81
-1.04173e-81
-2.56022e-80
1.13864e-79
1.16479e-78
-7.70969e-79
9.10888e-78
-9.98498e-78
8.7576e-77
1.62228e-77
1.72066e-76
-9.75118e-76
5.67285e-74
8.59913e-77
-4.73789e-72
5.29222e-73
1.16469e-70
-1.14791e-71
9.2248e-70
-9.29409e-71
4.94326e-69
-1.59542e-68
1.77847e-67
-1.83775e-67
2.40458e-67
-2.46859e-67
-1.42171e-65
-1.11192e-64
4.79935e-64
1.96384e-64
7.50883e-63
-1.35557e-62
-2.86352e-61
-3.27168e-61
-1.38927e-60
-6.88197e-60
2.19681e-63
3.60486e-11
-4.55809e-07
-2.13241e-05
0.000109294
0.000161658
-3.19838e-05
-1.79976e-08
7.05603e-08
-3.46271e-08
3.98769e-13
-2.03347e-13
6.96512e-15
3.6306e-17
-8.07135e-20
8.34156e-21
-3.92354e-22
-4.28691e-24
8.756e-26
7.17448e-28
-1.12005e-30
-1.70586e-32
-2.86283e-35
5.12333e-37
2.88581e-40
-3.02941e-41
2.05303e-43
-3.6262e-46
-3.62543e-48
4.82445e-50
-5.82474e-52
5.43409e-54
-4.11659e-56
2.1791e-58
-1.86014e-59
-6.93261e-12
3.89913e-14
2.85296e-12
2.55799e-11
-2.36083e-11
-1.41808e-10
1.60539e-10
7.88908e-10
-2.32686e-10
-5.56096e-09
-8.32926e-09
1.11718e-08
5.42518e-08
6.35966e-09
-5.09425e-07
-2.09225e-06
-4.95063e-06
-7.44014e-06
-2.91218e-06
2.34478e-05
0.000103782
0.000280821
0.000609424
0.00120991
0.00210601
0.0034579
0.00529017
0.00751846
0.0103355
0.0133696
0.0161193
0.0197583
0.0221194
0.0239875
0.0247119
0.0234185
0.0222541
0.0178356
0.0113685
0.00445222
-0.00547651
-0.0158445
-0.025382
-0.036809
-0.0443784
-0.0520994
-0.0575217
-0.0615894
-0.0617677
-0.062146
-0.0602177
-0.0554635
-0.052291
-0.0468656
-0.0410078
-0.0355721
-0.0281591
-0.0228689
-0.0184046
-0.0118729
-0.00942801
-0.00600838
-0.00320504
-0.00149534
-1.22121e-05
0.000135291
0.00056897
0.00146109
0.0013305
0.00129039
0.00121894
0.00120736
0.000972684
0.000846756
0.000769279
0.000723739
0.000548287
0.000370545
0.000194577
2.40104e-13
-0.00131145
4.5483e-11
-8.83204e-14
3.064e-13
4.1228e-13
4.64818e-13
2.71621e-13
2.62882e-13
5.66074e-13
-2.32317e-13
1.862e-14
-3.96686e-14
5.43982e-14
2.41421e-12
-1.3241e-14
1.93493e-14
1.66646e-14
2.36059e-16
-6.11662e-14
4.35945e-14
1.54227e-14
-1.07283e-13
8.21484e-14
-5.49476e-14
2.0934e-14
-2.2906e-14
5.37809e-15
-2.62527e-14
-1.83987e-12
6.8557e-13
-2.05224e-12
8.66374e-13
-4.75178e-10
2.5921e-11
-4.92202e-13
-6.00543e-13
-7.75585e-13
1.95877e-13
4.60497e-15
-2.49495e-13
5.86688e-14
-2.07984e-13
-2.64586e-13
-4.50978e-14
-1.08522e-13
6.60885e-13
8.47856e-14
1.1206e-12
1.0016e-12
1.73861e-13
6.60205e-13
-5.09566e-13
4.24298e-13
1.91264e-13
-7.56045e-13
-1.79031e-12
-5.72902e-13
5.65822e-13
1.70249e-13
-1.32028e-12
1.44837e-13