/*--------------------------------*- C++ -*----------------------------------*\
  =========                 |
  \\      /  F ield         | OpenFOAM: The Open Source CFD Toolbox
   \\    /   O peration     | Website:  https://openfoam.org
    \\  /    A nd           | Version:  7
     \\/     M anipulation  |
\*---------------------------------------------------------------------------*/
FoamFile
{
    version     2.0;
    format      ascii;
    class       volScalarField;
    location    "0.92";
    object      T;
}
// * * * * * * * * * * * * * * * * * * * * * * * * * * * * * * * * * * * * * //

dimensions      [0 0 0 1 0 0 0];

internalField   nonuniform List<scalar> 
45544
(
0
0
0
0
0
0
0
0
0
0
0
0
0
0
1.54678e-40
8.82584e-40
2.96711e-39
1.62919e-38
5.44735e-38
1.5997e-37
4.11372e-37
6.37555e-37
2.33602e-36
-1.71181e-37
1.10166e-35
-1.78708e-35
3.97942e-35
-1.23072e-34
1.20715e-34
-5.07829e-34
3.10768e-34
-1.62924e-33
6.50224e-34
-4.43381e-33
1.29644e-33
-9.67942e-33
2.67672e-33
-2.25879e-32
4.66531e-33
-4.27233e-32
6.82088e-33
-7.1873e-32
8.73532e-33
-1.01535e-31
9.45729e-33
-1.19596e-31
9.42151e-33
-1.21294e-31
9.04632e-33
-1.13645e-31
8.88933e-33
-1.09624e-31
9.29845e-33
-1.09516e-31
8.8395e-33
-1.20463e-31
1.39538e-33
-1.32588e-31
6.81192e-33
-5.64429e-32
1.27767e-31
1.17747e-31
7.92058e-31
5.90941e-32
2.12768e-30
-1.9257e-30
3.5942e-30
-6.754e-30
4.93003e-30
-1.14077e-29
4.95405e-30
-1.30639e-29
3.87441e-30
-1.18188e-29
2.19105e-30
-6.55926e-30
9.89843e-31
-3.08055e-30
3.84708e-31
-1.35788e-30
1.10854e-31
-4.53681e-31
2.65697e-32
-1.23678e-31
2.73149e-33
-3.84467e-33
-3.3192e-34
5.42695e-33
-6.86999e-35
4.43531e-34
5.09276e-36
-1.42581e-34
-1.42538e-39
6.76108e-36
-9.79064e-41
1.28376e-38
0
-2.87972e-40
0
0
0
0
0
0
0
0
0
0
0
0
0
0
0
0
0
0
0
0
0
0
0
0
0
0
0
0
0
0
0
0
0
0
0
0
0
0
0
0
0
0
0
0
0
0
0
0
0
0
0
0
0
0
0
0
0
0
0
0
0
0
0
0
0
0
0
0
0
0
0
0
0
0
0
0
0
0
0
0
0
0
0
0
0
0
0
0
0
0
0
0
0
0
0
0
0
0
0
0
0
0
-7.13958e-41
-2.28734e-36
2.50892e-32
4.47761e-29
7.11521e-28
4.73873e-27
-2.76538e-26
2.79595e-25
-1.28723e-25
-2.1671e-24
-4.88917e-24
-3.20229e-25
-3.06987e-24
-7.09466e-24
-9.69068e-24
-1.24147e-23
-1.20575e-23
-4.93291e-24
1.53108e-23
-1.57389e-22
-5.95147e-22
4.17368e-21
3.52322e-21
7.17075e-21
5.33008e-21
-7.34633e-21
-2.00545e-20
-4.76661e-21
-1.34835e-20
-6.99557e-21
-4.58156e-21
-7.87395e-21
1.51036e-20
5.3685e-20
3.81257e-20
-1.20519e-20
1.12819e-19
1.83063e-19
2.95291e-19
2.60067e-19
1.08186e-19
8.30724e-20
-1.575e-20
4.883e-20
8.07121e-20
9.74133e-20
1.92395e-19
2.11347e-19
1.72811e-18
1.97506e-18
2.74197e-18
3.30943e-18
5.37745e-18
6.30147e-18
6.44477e-18
3.15726e-18
5.66153e-20
-9.47281e-18
-1.45924e-17
-1.32538e-17
-1.39757e-17
-1.19526e-17
-7.49317e-18
-2.85544e-18
1.36048e-18
7.13935e-18
1.02912e-17
7.87044e-18
8.45384e-18
5.84128e-18
4.56646e-18
2.16477e-18
5.26721e-19
-1.16305e-18
-1.97531e-18
-1.93519e-18
-1.83349e-18
-1.79277e-18
-1.48876e-18
-1.05043e-18
-4.70618e-19
-2.5858e-19
-8.96487e-20
4.38703e-20
1.30569e-19
1.26305e-19
1.65448e-19
1.55166e-19
9.75807e-20
7.84328e-20
4.43423e-20
3.35182e-20
2.06787e-20
1.07906e-20
3.48972e-21
1.69903e-21
1.69076e-20
8.25295e-19
-7.11541e-17
0
0
0
0
0
0
0
0
0
0
0
0
0
0
0
0
0
0
0
0
0
0
0
0
0
0
0
0
0
0
0
0
0
0
2.6264e-122
2.75077e-122
3.82441e-115
4.08311e-115
-2.07538e-107
6.39539e-111
4.73197e-104
1.46311e-104
7.63277e-102
-1.66688e-102
-1.63484e-99
-1.47756e-99
2.36834e-98
6.60695e-98
6.96723e-97
-1.43835e-96
9.26076e-96
-3.94978e-96
5.96866e-95
4.18588e-95
2.21342e-93
1.59806e-93
1.56927e-91
1.41616e-91
1.67135e-91
2.80756e-91
-7.90506e-91
3.78957e-90
-2.89569e-90
5.92974e-90
-1.75427e-89
-1.2782e-89
-1.11368e-88
-8.23707e-88
2.69399e-87
-1.43045e-86
1.4245e-86
-4.30735e-87
1.35603e-86
-3.61463e-87
2.97163e-86
-5.47471e-86
8.44999e-86
5.57586e-86
8.07462e-86
2.1753e-85
4.81235e-86
3.84496e-85
-1.18677e-85
4.90222e-85
-6.52908e-85
1.98509e-84
-1.47089e-84
2.52207e-84
-5.885e-84
7.82371e-85
-5.64683e-84
-6.08505e-84
4.42034e-84
-2.55135e-83
1.05564e-81
-4.138e-82
3.14712e-80
2.40377e-80
2.40875e-80
1.91538e-80
1.7551e-79
-4.99095e-79
1.51946e-78
-1.54544e-79
1.09853e-79
4.92283e-78
1.32016e-78
1.56745e-77
-8.43419e-77
2.18378e-76
-3.46681e-76
-3.73862e-76
6.81842e-77
-1.16112e-75
-2.46818e-75
2.71734e-75
9.7725e-75
-3.48274e-74
6.34369e-74
-1.24777e-73
1.04403e-73
-2.77671e-73
1.40767e-73
-1.55725e-73
2.4284e-75
5.56772e-73
-1.73612e-73
4.19524e-73
-3.09018e-72
9.02598e-72
-5.23583e-72
2.77023e-72
-1.614e-71
-3.2933e-72
-1.90383e-71
-8.25926e-71
3.32454e-72
-9.39564e-71
3.35447e-71
-8.85238e-71
4.01156e-71
-4.99786e-71
-9.36011e-72
1.44574e-70
-5.34738e-71
1.59271e-70
-2.58411e-70
3.39481e-70
-6.12745e-70
-2.45536e-72
-2.54253e-70
-9.30487e-70
2.71682e-70
-1.11167e-69
4.03872e-70
-4.06148e-69
1.58487e-69
-5.029e-69
3.55726e-69
-5.86845e-69
1.76436e-69
-6.14042e-69
1.6041e-69
-5.57009e-70
-7.51616e-70
-1.49024e-70
-4.31271e-69
1.58443e-69
-4.53685e-70
-1.25379e-68
7.43896e-70
-7.10521e-69
4.09596e-69
-1.11345e-68
-1.1292e-68
-6.06144e-68
2.11361e-68
-6.13248e-68
9.32077e-69
-6.99498e-68
8.3141e-68
-2.25524e-67
7.96721e-68
-1.02731e-67
1.12174e-67
-9.91867e-68
1.66807e-67
-1.29463e-67
3.76674e-67
-4.16415e-68
4.13592e-67
8.70476e-68
2.73049e-67
1.00445e-67
2.39518e-67
-1.57377e-67
4.69211e-67
-3.99528e-67
5.7434e-67
2.16897e-67
3.6664e-67
-6.79122e-67
9.41297e-67
-1.29118e-66
9.57225e-67
6.80052e-67
7.435e-67
-1.4891e-66
-6.07452e-69
3.2987e-67
2.05988e-67
2.51233e-66
3.45152e-67
7.27658e-67
1.73926e-66
-3.70679e-66
1.62033e-66
-7.14793e-67
5.52369e-67
1.75012e-66
-1.55785e-66
2.25264e-66
3.56606e-66
-8.56369e-66
5.10219e-66
6.61269e-66
-2.87755e-67
2.37146e-66
2.46417e-66
-7.08262e-66
5.67343e-66
4.76063e-67
7.00086e-67
2.24403e-65
-6.318e-66
1.97813e-65
-7.51959e-66
2.11545e-65
-1.521e-65
1.61084e-65
-1.47477e-65
1.04868e-66
-1.49927e-65
2.04661e-65
-1.79076e-65
3.06299e-65
-2.73457e-65
4.23875e-65
-2.93567e-65
3.6726e-65
-4.45965e-65
5.61278e-65
-5.25472e-65
1.10178e-64
-7.8034e-65
1.19103e-64
-1.09889e-64
1.57361e-64
-1.28132e-64
1.63231e-64
-1.34293e-64
1.16299e-64
-1.27725e-64
7.76241e-65
-1.20529e-64
5.9302e-66
-7.32013e-65
-3.27699e-65
-6.94909e-65
8.08328e-65
-6.2689e-65
4.39543e-65
-3.85233e-65
-2.61481e-65
-1.64263e-65
7.5967e-66
-4.40073e-66
-3.93695e-65
7.06935e-65
-1.78854e-64
8.79839e-65
-1.50727e-64
1.39097e-64
-1.77578e-64
1.43775e-64
-1.87159e-64
1.63036e-64
-1.97929e-64
1.09795e-64
-2.30531e-64
1.27941e-64
-2.61341e-64
1.70405e-64
-1.61078e-64
1.26487e-64
-1.8098e-64
1.19523e-64
-2.48015e-64
8.07078e-65
-1.75823e-64
8.44069e-65
-5.30735e-65
8.9357e-65
-1.04291e-64
7.41588e-65
-2.7031e-65
7.58378e-65
-7.71018e-65
-1.48904e-65
-7.41831e-65
5.77699e-66
-8.20244e-65
-6.85251e-65
4.82676e-65
-1.37191e-64
-6.4223e-65
-9.22147e-65
-8.22286e-66
-1.04646e-64
7.71034e-65
-1.27141e-64
8.06058e-65
-1.25282e-64
6.49238e-65
-1.19111e-64
8.50645e-65
-1.31294e-64
4.96747e-65
-1.07525e-64
4.43459e-65
-9.82865e-65
4.561e-65
-8.10578e-65
4.25477e-65
-6.34274e-65
5.26378e-65
-6.41583e-65
4.0518e-65
-5.63096e-65
2.09348e-65
-5.31532e-66
4.07715e-65
-1.28071e-65
4.03163e-65
-6.91246e-66
-9.4092e-66
7.20135e-66
-8.30932e-66
1.25681e-65
4.34496e-66
1.37158e-65
-1.9267e-66
-2.59745e-65
-3.10894e-65
3.02015e-63
3.69126e-63
-1.71274e-61
-2.28512e-62
-5.69297e-59
4.30176e-60
1.19047e-57
1.38825e-57
2.6961e-56
-2.59174e-56
4.07481e-54
-4.52851e-55
-4.61758e-53
-6.93226e-53
1.03282e-51
3.02474e-52
-6.03605e-50
-1.49349e-50
5.35058e-49
8.39026e-49
-8.93451e-49
-6.01472e-48
3.63788e-48
1.7174e-47
-3.17911e-47
-3.38059e-47
-1.14367e-45
2.1477e-46
-1.02965e-43
1.44886e-44
2.17635e-42
8.63664e-43
1.35124e-41
-1.42719e-41
-7.31606e-41
-1.02723e-41
2.67304e-41
-5.58855e-40
-6.5601e-40
3.86105e-39
-8.88931e-38
-3.89401e-39
1.29267e-36
1.49624e-16
-7.4905e-15
4.55768e-14
-3.74734e-12
1.2643e-10
6.36794e-10
-1.85242e-08
2.72051e-07
3.01725e-06
1.07802e-05
2.0271e-05
2.62445e-05
2.76056e-05
2.75109e-05
2.7354e-05
2.71818e-05
2.68134e-05
2.51806e-05
2.10716e-05
1.4839e-05
8.5284e-06
3.94971e-06
1.40386e-06
3.81443e-07
6.08778e-08
8.54527e-11
-2.65892e-09
-6.7809e-10
-4.20602e-11
1.32611e-11
1.25782e-12
-2.81729e-13
4.52514e-15
3.01443e-15
-4.3015e-16
2.50608e-17
-5.54268e-19
-6.53119e-20
8.92384e-21
-6.8472e-22
3.89907e-23
-1.48243e-24
2.14104e-26
2.55262e-27
-2.7323e-28
1.14329e-29
-1.33861e-31
-7.11326e-33
2.13976e-34
1.6324e-12
-1.2725e-12
3.02247e-13
4.14885e-13
-1.00907e-12
6.73758e-13
1.52845e-12
-1.83489e-12
-7.95109e-13
-1.02079e-12
-1.3928e-12
-5.86332e-13
-9.69444e-13
9.84061e-13
-1.13356e-13
2.42507e-13
1.39296e-12
-7.26214e-13
-7.07787e-13
1.54538e-12
1.27133e-12
4.22765e-12
3.93696e-13
-2.36078e-12
4.29137e-12
3.51771e-12
2.80768e-12
-9.28117e-12
-5.85479e-12
-9.51836e-12
-8.79167e-12
-7.9498e-12
-3.0284e-12
1.24226e-12
-1.39351e-11
-8.6496e-13
1.20767e-11
3.12935e-11
-1.83363e-12
5.92669e-11
-1.34599e-10
1.05869e-11
-4.2858e-11
-1.94496e-10
1.99502e-10
1.95076e-10
-1.24941e-10
2.32119e-11
-2.07248e-10
-3.88819e-10
1.43057e-10
1.28679e-10
6.26744e-11
2.43194e-10
-1.913e-10
-3.62877e-10
9.85835e-11
1.47985e-11
1.0404e-10
3.37365e-10
-2.33845e-10
-3.22479e-10
1.61218e-10
1.29859e-11
-2.59729e-11
1.59277e-10
-3.30094e-11
-1.52422e-10
6.77491e-11
1.19384e-10
-9.41188e-11
-5.35786e-11
7.24759e-12
-9.72733e-11
6.46762e-12
3.60991e-11
-2.00742e-11
-8.30294e-12
-3.23222e-13
4.97564e-13
3.55398e-13
1.63544e-12
5.63524e-13
2.45438e-12
2.23103e-12
4.65755e-12
5.86252e-12
-9.31651e-13
-2.69941e-13
1.32629e-13
-3.03778e-13
4.1973e-14
2.49376e-13
-2.5207e-13
-5.55378e-13
8.43581e-13
-6.6607e-13
2.40711e-13
-1.8886e-17
-1.59624e-45
-1.36337e-38
5.29072e-35
2.02247e-30
7.46093e-28
-1.12892e-27
-1.66539e-26
5.5195e-26
-1.5767e-25
3.36119e-25
7.51335e-24
2.81431e-24
3.27415e-24
-6.72653e-24
-6.16229e-24
-9.93199e-24
-8.59062e-24
-1.48009e-23
-4.39217e-23
-2.07453e-23
6.52344e-22
-2.68266e-21
-3.11372e-21
-3.11092e-22
-9.4356e-22
-1.39244e-22
1.48777e-20
5.1389e-21
5.4485e-21
-1.52277e-21
-2.37305e-20
-2.64941e-20
-2.43397e-20
-2.65674e-20
-2.49786e-20
2.75404e-20
5.51526e-20
-4.23708e-20
9.67096e-21
1.50662e-19
4.45322e-19
2.92852e-19
2.92505e-19
4.02057e-19
-1.02306e-19
-2.07326e-19
-2.84823e-19
-3.10045e-19
-6.22262e-19
2.49453e-19
1.14901e-18
3.78245e-18
4.66816e-18
6.6368e-18
5.56004e-18
4.08058e-18
-1.69582e-18
-5.97407e-18
-9.64598e-18
-1.65155e-17
-1.35881e-17
-1.57374e-17
-1.08335e-17
-6.479e-18
2.79243e-18
5.36015e-18
7.63314e-18
1.19834e-17
7.9717e-18
9.14828e-18
4.58063e-18
3.33603e-18
1.12065e-18
-4.67158e-19
-1.28051e-18
-2.40508e-18
-1.77297e-18
-1.86718e-18
-1.57528e-18
-1.14651e-18
-8.57011e-19
-3.96439e-19
-1.7444e-19
1.50965e-20
9.36785e-20
1.59582e-19
1.69248e-19
1.57196e-19
1.53538e-19
1.01829e-19
6.84246e-20
3.94869e-20
2.70299e-20
1.57147e-20
6.79143e-21
1.18908e-21
-2.39026e-20
-1.85647e-19
1.54283e-42
8.56065e-18
6.9866e-47
2.75157e-16
1.8799e-15
1.62922e-36
2.1985e-15
4.75204e-15
-2.6038e-13
-1.18621e-11
7.65641e-10
-5.53112e-09
5.41918e-09
1.15077e-06
6.2037e-06
1.56055e-05
2.39151e-05
2.72556e-05
2.76218e-05
2.74246e-05
2.72546e-05
2.70841e-05
2.62192e-05
2.34858e-05
1.80726e-05
1.15951e-05
5.98981e-06
2.46968e-06
7.73069e-07
1.67447e-07
1.59353e-08
-3.18776e-09
-1.5267e-09
-2.33562e-10
9.87025e-12
6.32223e-12
-2.5269e-13
-8.17632e-14
1.16789e-14
-3.44178e-16
-6.81727e-17
1.13338e-17
-9.48605e-19
6.44194e-20
-3.86326e-21
2.1718e-22
-1.23734e-23
7.12135e-25
-3.57252e-26
1.2658e-27
-1.22037e-29
-1.31241e-30
6.17875e-32
-3.55977e-34
4.22164e-14
-3.0551e-35
-1.30632e-11
9.15364e-12
-2.32959e-11
3.85063e-14
-6.93524e-13
-7.03685e-13
-1.55276e-12
-1.1191e-12
-5.25308e-13
-6.94011e-12
-8.41409e-12
3.36264e-12
-5.18998e-13
-1.00126e-11
-5.4258e-13
2.5403e-13
-2.51966e-13
-6.11411e-14
-4.34882e-13
8.48443e-13
-8.15999e-13
3.23802e-13
-2.47294e-13
2.33301e-13
0
6.64004e-35
-3.38244e-31
-4.58559e-28
1.11949e-27
-2.02441e-26
-9.07959e-26
-8.03035e-25
-4.43504e-24
-1.36265e-23
-9.03994e-24
-5.32936e-24
-9.26978e-24
-9.57316e-24
-1.84242e-23
-1.5108e-23
-1.38482e-23
-4.10252e-23
-1.61705e-22
-1.45208e-22
3.83299e-21
-5.67366e-21
-1.05789e-21
6.35069e-23
8.76333e-21
-1.50047e-20
-7.53843e-21
-2.01121e-20
1.84888e-20
-2.35142e-20
-9.38525e-20
-6.57537e-20
-4.89665e-20
-1.35198e-19
-9.22409e-20
-5.25157e-21
-2.21024e-19
-2.3622e-19
-1.88171e-20
2.1066e-20
6.31624e-21
3.15742e-19
4.32319e-20
-6.67839e-19
-4.67389e-19
-6.58551e-19
-2.58111e-18
-3.28214e-18
-6.18316e-18
-8.59673e-18
-3.59405e-18
-5.86929e-18
-9.79577e-19
5.49589e-18
1.60185e-17
1.92623e-17
2.71454e-17
2.80313e-17
1.26853e-17
9.96469e-18
-5.20301e-18
-1.22272e-17
-1.60603e-17
-1.51065e-17
-1.83546e-17
-1.71163e-17
-4.6989e-18
-6.15515e-18
-1.70204e-19
7.57813e-19
3.48342e-18
3.97475e-18
4.46054e-18
3.97879e-18
1.92669e-18
2.25924e-18
7.4645e-19
2.18791e-19
1.28771e-19
-4.44479e-19
-3.38014e-19
-3.15168e-19
-3.0573e-19
-3.16865e-19
-2.01929e-19
-1.66771e-19
-1.35123e-19
-1.78781e-20
-3.27435e-20
-1.23548e-20
3.97144e-21
4.54192e-21
1.19454e-20
1.05179e-20
6.30904e-21
-9.73403e-21
1.63269e-19
-3.79286e-18
3.46773e-14
-7.40558e-12
3.26753e-10
-5.24719e-10
-2.38998e-08
5.9996e-07
4.8091e-06
1.46997e-05
2.48834e-05
2.99672e-05
3.07385e-05
3.05778e-05
3.03672e-05
3.02426e-05
2.96029e-05
2.72816e-05
2.18882e-05
1.46742e-05
7.95782e-06
3.45561e-06
1.13877e-06
2.73446e-07
3.27408e-08
-3.22502e-09
-2.28635e-09
-4.2674e-10
3.70528e-13
1.07392e-11
-3.35513e-14
-1.74484e-13
1.71586e-14
1.49062e-16
-1.9022e-16
2.231e-17
-1.6644e-18
9.8792e-20
-5.36276e-21
2.97961e-22
-1.74829e-23
1.18004e-24
-6.97639e-26
2.8897e-27
-5.7138e-29
-1.76632e-30
1.26921e-31
-1.56904e-33
-8.87969e-35
6.89158e-13
-4.42858e-13
-7.70241e-13
-7.79764e-13
-7.83143e-13
2.77971e-12
1.60188e-12
-6.23936e-12
-6.39622e-12
-1.9188e-11
-2.65288e-13
1.26746e-13
-9.7743e-14
6.81499e-15
2.84818e-13
-2.43044e-13
-2.49319e-13
4.09524e-13
-3.13684e-13
1.39353e-13
6.35698e-37
-1.18499e-33
-2.20494e-29
-3.13264e-27
-5.08545e-28
1.16234e-25
-3.14802e-26
2.03777e-24
1.05362e-23
5.76875e-24
3.17663e-24
-2.01211e-23
-1.71366e-23
-1.68626e-23
-1.88923e-23
-2.43315e-23
-3.28355e-23
1.15662e-23
1.51275e-22
-1.28659e-21
4.4567e-23
4.4583e-21
-1.14472e-21
-1.25822e-20
-1.10179e-20
1.27802e-20
2.79752e-20
3.82517e-21
-3.63347e-20
-1.69789e-20
-3.82881e-21
-1.16656e-20
-2.61257e-20
-7.61427e-20
-1.54269e-19
-3.16188e-19
-2.84275e-20
-2.26786e-20
-4.20434e-19
-5.78322e-19
-3.55878e-19
-2.63422e-19
1.77829e-20
2.45326e-19
9.31133e-20
-1.12887e-18
-1.62413e-18
-2.35987e-18
-4.94099e-18
-6.29512e-18
-6.51914e-18
-2.10224e-18
3.82886e-18
1.53912e-17
1.59125e-17
2.63696e-17
2.13557e-17
1.34544e-17
9.49593e-18
2.41593e-18
-7.97499e-18
-1.57677e-17
-1.8705e-17
-1.83802e-17
-1.88089e-17
-1.06809e-17
-7.47649e-18
-3.62687e-18
4.95832e-19
2.72859e-18
3.1477e-18
4.05337e-18
3.71169e-18
2.50396e-18
2.15928e-18
9.83333e-19
1.43317e-19
-8.03927e-21
-2.91453e-19
-1.90266e-19
-3.57844e-19
-3.46308e-19
-3.1519e-19
-1.84833e-19
-1.98838e-19
-1.39632e-19
-5.98217e-20
-5.29253e-20
-1.17549e-20
2.62692e-21
4.69354e-21
1.1719e-20
1.18741e-20
1.03473e-20
5.38082e-21
1.35066e-19
1.08321e-18
1.28409e-09
-1.24972e-08
6.30151e-08
2.04762e-06
9.17451e-06
2.01573e-05
2.82669e-05
3.06271e-05
3.07732e-05
3.04218e-05
3.0297e-05
3.00099e-05
2.86885e-05
2.4976e-05
1.83696e-05
1.10706e-05
5.41474e-06
2.03465e-06
5.88646e-07
1.0664e-07
4.3619e-09
-3.61774e-09
-1.12716e-09
-1.03579e-10
1.77947e-11
2.96537e-12
-4.22049e-13
-1.26841e-14
6.71101e-15
-6.94832e-16
2.54616e-17
1.09146e-18
-2.70326e-19
2.59908e-20
-1.83162e-21
1.05151e-22
-4.6154e-24
1.33314e-25
1.08313e-27
-4.43774e-28
2.40349e-29
-4.25081e-31
-1.06921e-32
6.14127e-34
5.22859e-36
7.733e-13
2.37733e-13
1.32578e-12
6.5784e-13
-5.30916e-13
-1.40069e-12
-4.48637e-12
9.15606e-12
1.06299e-11
-6.97379e-12
2.78805e-13
-2.25608e-13
1.87757e-13
-1.81658e-13
-1.98935e-13
6.29833e-13
-4.97975e-13
1.80887e-13
-1.1031e-13
8.35209e-14
5.75787e-39
-1.43202e-14
-3.31068e-12
-9.09091e-13
2.60981e-14
-4.67859e-13
0
1.225e-33
0
0
0
0
-5.75338e-42
0
-1.22362e-41
2.72756e-39
2.17237e-38
3.83223e-38
1.97832e-37
1.50975e-37
-1.22656e-36
-1.20342e-36
-2.22098e-35
-1.5874e-35
-7.48442e-35
-6.10396e-35
2.80796e-34
-4.69722e-35
3.32474e-33
8.71436e-34
1.04625e-32
5.25685e-33
8.69658e-33
2.06184e-32
-5.27329e-32
6.24386e-32
-4.12607e-31
1.42828e-31
-1.27434e-30
3.50098e-31
-3.06681e-30
6.88237e-31
-8.27743e-30
1.19239e-30
-1.67859e-29
1.70129e-30
-2.83819e-29
2.01864e-30
-3.78246e-29
2.02956e-30
-4.03333e-29
1.88324e-30
-3.7049e-29
1.82847e-30
-3.43972e-29
1.83224e-30
-3.43143e-29
1.99167e-30
-3.51238e-29
2.27269e-30
-3.98112e-29
1.67341e-30
-5.02755e-29
-6.47106e-31
-3.40855e-29
-1.12066e-30
5.22107e-29
1.54531e-29
8.53396e-29
5.71896e-29
-1.92727e-28
9.94573e-29
-7.08988e-28
1.15393e-28
-1.11196e-27
1.03433e-28
-1.08221e-27
5.94618e-29
-7.11598e-28
2.98504e-29
-3.63377e-28
1.43213e-29
-2.10054e-28
5.4107e-30
-1.04443e-28
1.49545e-30
-3.47081e-29
7.59392e-32
-9.3395e-31
-5.23489e-32
1.67701e-30
-3.05929e-33
-5.03936e-33
1.69357e-33
-7.49027e-32
-1.61061e-34
1.31998e-32
3.13087e-36
-6.61491e-34
4.18581e-38
6.12324e-36
-3.99262e-40
3.07131e-37
0
-2.02546e-39
0
0
0
0
0
0
0
0
0
0
0
0
0
0
0
0
0
0
0
0
0
0
0
0
0
0
0
0
0
0
0
0
0
0
0
0
0
0
0
0
0
0
0
0
0
0
0
0
0
0
0
0
0
0
0
0
0
0
0
0
0
0
0
0
0
0
0
0
0
0
0
0
0
0
0
0
0
0
0
0
0
0
0
0
0
0
0
0
0
0
0
0
0
0
0
0
0
-1.33903e-14
2.13297e-15
2.83521e-15
1.44779e-14
-4.68274e-30
-5.20264e-27
3.8214e-26
6.40415e-26
-1.27588e-24
-4.56325e-24
-2.03596e-23
-5.73691e-23
-4.49615e-23
-7.20928e-24
-3.11311e-23
-2.86961e-23
-3.56656e-23
-3.26953e-23
1.88084e-23
-2.81365e-23
-7.96295e-22
-2.35322e-21
2.10731e-20
-4.16917e-21
9.52918e-21
7.61745e-21
5.76454e-20
-9.89572e-20
1.16497e-19
5.44318e-20
2.17078e-19
3.04376e-20
-3.4111e-19
-2.73598e-19
-2.4321e-19
-7.02651e-19
-4.06683e-19
1.52024e-19
-1.05792e-18
-1.813e-18
-5.66049e-19
-1.0667e-18
-1.27923e-18
7.80212e-19
-8.00199e-19
-4.14719e-18
-2.03774e-18
2.74419e-18
-6.84309e-18
-8.47396e-18
-2.51445e-17
-5.04573e-17
-3.93245e-17
-7.96876e-17
-1.05269e-16
-9.70435e-17
-4.56184e-17
-2.21592e-18
1.16687e-16
2.066e-16
1.96858e-16
2.21526e-16
2.01656e-16
1.58923e-16
1.01672e-16
1.51062e-17
-7.10986e-17
-1.29932e-16
-1.09298e-16
-1.31835e-16
-1.223e-16
-8.75682e-17
-5.27186e-17
-2.91468e-17
-2.71699e-18
1.50526e-17
1.99894e-17
2.94855e-17
2.38133e-17
2.09538e-17
1.90434e-17
1.08758e-17
7.83478e-18
4.79058e-18
1.3862e-18
-6.9562e-19
-1.41752e-18
-2.07556e-18
-2.45432e-18
-1.65766e-18
-1.61985e-18
-1.187e-18
-6.74448e-19
-5.72651e-19
-2.95799e-19
-1.88352e-19
-1.00092e-19
-2.26424e-19
1.25163e-18
-2.39353e-17
1.35051e-09
4.46718e-40
-3.47655e-17
2.01963e-45
-2.18354e-42
0
0
0
0
0
0
0
0
0
0
0
0
0
0
0
0
0
0
0
0
0
0
0
0
0
0
0
0
0
0
0
0
8.85848e-121
7.49893e-121
2.16352e-113
2.75029e-113
-1.5292e-105
-2.91264e-110
6.66766e-102
1.04389e-102
6.80338e-101
-1.32844e-100
-4.03075e-98
-4.13638e-100
7.80493e-96
4.44149e-96
6.81209e-95
-1.80043e-94
9.13135e-94
-2.31076e-94
1.32509e-92
-3.84022e-92
1.90319e-91
8.52719e-92
1.26124e-89
1.38418e-89
3.27246e-91
6.36179e-89
4.79948e-89
5.49348e-88
-2.00627e-88
9.46483e-88
-2.15393e-87
4.07605e-87
5.19769e-87
-4.71936e-86
-1.38364e-85
-9.09431e-85
5.84645e-85
-2.48512e-84
1.48008e-84
-2.38699e-84
5.08542e-84
-2.40625e-84
8.88867e-84
4.23206e-84
4.95756e-84
8.71694e-84
5.6533e-84
1.00707e-83
1.1147e-83
3.58849e-83
-3.93084e-83
6.80557e-83
-1.12833e-82
3.78815e-83
-2.63615e-82
2.71704e-83
-2.26844e-82
1.46123e-82
4.47706e-82
-2.19924e-81
2.18864e-80
-8.96167e-80
1.19704e-78
3.42546e-79
2.34553e-78
3.93116e-79
3.59883e-77
-5.86395e-78
1.61174e-76
3.78609e-77
-2.2835e-77
5.67034e-76
-2.34242e-76
2.38171e-75
-1.03606e-74
1.2128e-74
-1.05447e-74
-1.71138e-74
2.47032e-75
-7.51616e-74
-1.07163e-73
3.02621e-74
4.36308e-73
3.77972e-73
2.91391e-72
-1.89717e-72
1.52028e-71
-4.38538e-71
1.85651e-71
-1.54902e-71
8.36732e-72
3.2002e-71
3.96394e-71
1.23324e-70
-2.45971e-70
6.6111e-70
-4.64105e-70
6.33478e-70
-1.4571e-69
-4.71792e-70
-7.01004e-70
-2.15461e-69
7.87112e-70
-3.99308e-69
2.16536e-70
-2.9667e-69
9.52873e-70
-3.95539e-69
-7.22663e-70
-4.14166e-70
-2.26616e-69
8.6667e-69
-5.52852e-69
1.43949e-68
-1.82998e-68
6.14333e-68
-2.90964e-68
6.84114e-68
-3.9264e-68
1.91537e-68
-1.81307e-68
3.00086e-68
-1.03306e-68
2.17925e-68
-2.84187e-68
-1.16451e-67
-3.2102e-68
-3.18187e-67
-4.48579e-68
-1.68881e-67
-6.41253e-68
-1.25872e-67
-1.88208e-67
7.94333e-69
-2.3942e-67
3.74088e-67
-4.07567e-67
2.96219e-67
-4.18411e-67
-1.49142e-67
-3.77065e-67
1.11569e-67
-1.0141e-66
-1.35991e-66
-2.1797e-67
-3.65052e-66
1.20801e-66
-2.11986e-66
2.44698e-66
-7.72657e-66
3.01552e-66
-9.14537e-66
7.64257e-66
-1.78838e-65
1.07589e-65
-1.64732e-65
1.19118e-65
-1.93555e-65
1.2408e-65
-1.68254e-65
1.26176e-65
-5.43323e-66
1.34613e-65
-2.45793e-65
1.58733e-65
-3.87997e-65
3.53888e-65
-4.55366e-65
3.5463e-65
-5.90881e-65
4.2144e-65
-1.32822e-64
1.01028e-64
-1.23096e-64
1.04644e-64
-9.63196e-65
3.56524e-65
-3.51715e-66
7.9516e-65
-1.03574e-64
4.50546e-65
-3.16309e-64
8.75722e-65
-3.14714e-64
1.44775e-64
-3.76534e-64
2.13596e-64
-3.7909e-64
1.13896e-64
-2.5621e-64
1.75813e-64
-7.66585e-64
4.07449e-64
-6.27005e-64
2.49373e-64
-3.52778e-64
1.59833e-64
-8.53096e-64
3.74361e-64
-9.62939e-64
2.9276e-64
-2.68291e-64
-1.07776e-64
-5.48616e-64
3.06432e-64
-3.61694e-64
-4.38701e-64
4.66912e-65
-5.72921e-64
3.95884e-64
-6.40434e-64
4.46222e-64
-6.62656e-64
5.12274e-64
-8.239e-64
1.88861e-63
-1.32222e-63
2.38394e-63
-1.73404e-63
1.70319e-63
-2.08955e-63
1.98956e-63
-2.39945e-63
3.30377e-64
-1.72336e-63
-7.69217e-64
-1.18686e-63
-7.25617e-64
-1.09697e-63
-4.10306e-63
7.25892e-64
-1.4648e-63
-1.86449e-64
-4.27275e-63
8.76342e-64
-6.2089e-63
2.57262e-63
-6.21728e-63
3.32343e-63
-6.63972e-63
3.90131e-63
-6.7876e-63
4.82914e-63
-5.58045e-63
2.19954e-63
-7.02061e-63
2.50683e-63
-3.65559e-63
1.75502e-63
-6.00684e-63
2.56497e-63
-4.38457e-63
-1.35962e-63
-4.67523e-63
-3.94639e-64
-5.04443e-63
3.82359e-64
-3.24354e-63
-1.85797e-63
-1.74284e-63
-1.12657e-63
-1.17603e-63
-3.39907e-63
5.25657e-63
-4.8648e-63
5.2217e-64
-5.706e-63
-1.65229e-63
-4.97497e-63
-6.5087e-64
-5.12147e-63
-1.0858e-63
-4.77887e-63
9.97466e-64
-5.50108e-63
1.36589e-63
-4.81546e-63
3.07433e-63
-5.08775e-63
3.27311e-63
-5.03234e-63
5.29782e-63
-5.34615e-63
3.29711e-63
-4.25268e-63
2.71446e-63
-3.35012e-63
3.41645e-63
-3.28629e-63
1.94019e-63
-2.3509e-63
4.05678e-65
-1.25916e-63
9.27079e-64
-6.87317e-64
-3.28834e-65
-4.70943e-64
-1.34517e-65
4.99384e-65
-1.57988e-64
2.46142e-64
-5.39384e-64
4.11689e-64
-5.13971e-64
7.68435e-64
-1.43491e-64
1.24101e-63
-1.99388e-64
1.17887e-63
-4.80736e-64
1.31946e-63
-6.62274e-64
1.24523e-63
-8.67647e-64
1.2155e-63
-5.89058e-64
1.08791e-63
-4.44409e-64
1.23984e-64
-3.4268e-64
8.52915e-62
-5.92112e-63
-2.57502e-60
-4.7929e-60
4.61611e-59
1.42828e-59
5.21754e-56
2.61712e-58
-1.00881e-54
-1.00726e-54
-1.00772e-53
1.72258e-53
-1.33213e-51
1.81564e-52
7.92601e-51
2.09782e-50
-5.36066e-49
2.76077e-50
1.95216e-47
7.22862e-48
-1.32029e-46
-2.31671e-46
2.79832e-46
1.50936e-45
-4.60465e-46
-2.26698e-46
3.42938e-45
8.95002e-45
1.6439e-43
-5.19352e-44
1.30979e-41
-2.20738e-42
-9.91631e-41
-7.11613e-41
8.31135e-40
-5.85109e-40
-4.32644e-38
-4.13567e-38
1.00718e-37
2.97317e-37
-3.57436e-37
4.2876e-36
1.93967e-37
5.02606e-12
7.38826e-13
-3.80969e-13
2.76549e-14
-8.06349e-12
-1.27273e-11
2.70455e-14
-2.42095e-14
7.3009e-14
3.78735e-10
5.24249e-11
8.11546e-10
-1.14269e-12
-2.77175e-12
-1.37293e-08
8.16116e-08
2.29464e-06
1.01689e-05
2.23161e-05
3.12698e-05
3.39063e-05
3.40787e-05
3.36903e-05
3.35712e-05
3.32445e-05
3.17822e-05
2.76407e-05
2.03391e-05
1.22764e-05
6.00691e-06
2.26159e-06
6.52019e-07
1.18824e-07
4.89902e-09
-4.03038e-09
-1.25395e-09
-1.1632e-10
1.95276e-11
3.29423e-12
-4.59575e-13
-1.50074e-14
7.40478e-15
-7.45652e-16
2.57683e-17
1.33717e-18
-3.0306e-19
2.82715e-20
-1.96052e-21
1.12734e-22
-4.9929e-24
1.45066e-25
8.25613e-28
-4.52272e-28
2.46885e-29
-4.55803e-31
-1.04846e-32
6.27082e-34
-8.72252e-35
-2.00381e-34
1.08629e-35
7.56638e-13
2.4457e-13
6.59722e-11
-1.40748e-12
1.98047e-12
1.03821e-12
-1.49768e-13
9.10967e-13
3.2718e-13
-4.01876e-13
8.62273e-13
6.32427e-13
1.66419e-12
1.03611e-12
1.21661e-12
1.79135e-12
-2.59312e-12
-6.27851e-13
-2.43884e-12
-2.51922e-12
-2.67794e-12
-1.83374e-12
-4.63497e-14
6.93484e-13
3.44087e-12
-8.4436e-13
-3.07037e-12
3.60431e-12
-5.55656e-13
1.69339e-14
5.96153e-12
2.25166e-12
2.2829e-12
1.19897e-11
2.13402e-11
9.67288e-12
-6.50614e-12
1.08132e-11
7.28095e-13
2.3297e-11
1.31427e-10
3.1509e-10
-1.04401e-10
-1.46077e-10
-4.00192e-10
-3.7432e-10
3.2678e-10
-7.89034e-11
2.9173e-10
7.79429e-10
-7.54081e-10
-6.20193e-10
3.42467e-10
-4.48641e-10
3.6349e-10
9.64133e-10
-6.1403e-10
-4.42182e-10
3.37288e-10
-3.1657e-10
2.3003e-11
6.07232e-10
-2.47032e-10
-4.47954e-10
2.99647e-10
1.07204e-10
-1.75187e-10
1.66081e-10
-5.5389e-11
-2.59621e-10
2.3952e-11
5.51114e-11
-2.06497e-11
3.32042e-11
-6.06976e-11
0
4.02042e-13
1.11787e-12
8.84216e-13
-1.07814e-12
-1.22234e-12
-3.22821e-12
1.06112e-11
1.7267e-11
-8.93732e-12
-2.89655e-13
5.26319e-13
-3.72789e-13
2.38651e-13
2.14548e-14
-8.89499e-14
1.23746e-13
-1.3998e-13
2.19309e-13
2.65406e-13
-3.83182e-13
3.10008e-13
-1.74905e-13
1.13791e-13
2.65433e-35
-8.08745e-34
0
-1.55848e-12
-2.35587e-12
4.58054e-13
-1.0948e-10
-6.67392e-11
-1.08385e-10
-6.83072e-14
-2.26287e-13
-4.80776e-11
1.84037e-11
-2.93744e-13
1.66183e-13
-4.2595e-17
-1.73808e-32
-1.89445e-32
4.47528e-16
-1.42083e-13
5.27411e-31
2.30234e-16
-2.33334e-28
-1.58245e-26
-1.06763e-25
5.48135e-25
1.20106e-24
4.7625e-24
5.22578e-23
2.4239e-23
1.60508e-23
-7.4735e-23
-3.45035e-23
-2.22376e-23
-4.46002e-23
-6.08905e-23
-7.11795e-23
1.2028e-22
7.65298e-22
-1.96166e-21
-1.03471e-20
-7.86396e-21
-5.45698e-20
-9.87073e-20
-1.35793e-20
4.81314e-20
-3.25861e-20
-6.41824e-20
-1.90688e-19
-4.03716e-20
5.84747e-20
1.85594e-21
-7.16788e-20
-4.94092e-19
-7.77272e-19
-1.64533e-18
-2.64633e-19
-1.01009e-18
-4.29026e-18
-4.65416e-18
-3.74986e-18
-2.84999e-18
1.15851e-18
2.20729e-18
2.13768e-18
-1.0454e-18
-1.30275e-20
-9.55791e-18
-2.24828e-17
-4.63221e-17
-6.67226e-17
-7.33847e-17
-8.2743e-17
-4.44338e-17
-4.67668e-17
5.51617e-17
1.14378e-16
1.57391e-16
1.79992e-16
2.16111e-16
1.70922e-16
1.0898e-16
3.27226e-17
-3.0343e-17
-1.10478e-16
-1.30374e-16
-1.3022e-16
-1.33414e-16
-9.17437e-17
-7.46541e-17
-4.6364e-17
-1.84014e-17
5.01752e-18
1.77486e-17
2.46566e-17
2.1222e-17
1.93373e-17
1.95905e-17
1.46094e-17
1.00077e-17
5.56541e-18
2.46277e-18
3.34541e-19
-5.5144e-19
-1.65053e-18
-2.20054e-18
-2.00961e-18
-1.68553e-18
-1.22825e-18
-7.18457e-19
-6.38231e-19
-3.54083e-19
-2.38493e-19
-1.11568e-19
-4.89188e-20
1.13649e-18
1.27193e-17
4.67035e-25
-7.75803e-26
2.68471e-26
5.37768e-29
-5.44021e-11
-8.52442e-10
-2.39355e-08
6.82847e-07
5.36965e-06
1.62581e-05
2.75472e-05
3.31724e-05
3.4053e-05
3.38921e-05
3.36368e-05
3.34957e-05
3.27946e-05
3.0186e-05
2.42233e-05
1.62544e-05
8.81932e-06
3.83123e-06
1.26516e-06
3.02861e-07
3.62155e-08
-3.58909e-09
-2.55394e-09
-4.75048e-10
3.2351e-14
1.18123e-11
-2.47596e-14
-1.91964e-13
1.84287e-14
2.07104e-16
-2.10527e-16
2.38961e-17
-1.77191e-18
1.04283e-19
-5.48172e-21
3.00902e-22
-1.7725e-23
1.21642e-24
-7.24199e-26
3.01366e-27
-6.27298e-29
-1.71307e-30
1.29389e-31
-1.71243e-33
5.60668e-37
-3.79763e-14
3.46253e-11
-2.52724e-11
-1.52666e-14
0
-9.32369e-13
-4.52113e-13
-8.38673e-13
2.01368e-12
2.9812e-12
-5.6859e-12
-1.31919e-12
-2.39581e-11
-1.76268e-11
-6.59893e-14
1.94527e-14
-1.23442e-13
1.60658e-13
7.06411e-14
-1.17158e-13
1.47095e-13
-4.09142e-13
3.87581e-13
-9.45552e-14
-1.07859e-14
7.54923e-14
3.66984e-14
-1.89343e-35
4.03784e-23
2.16828e-27
3.2396e-13
-1.43679e-14
-2.33061e-14
2.27302e-13
2.50863e-15
4.09472e-12
-7.63392e-12
-4.98028e-12
-7.47402e-13
-1.50232e-12
-1.05303e-12
1.41152e-33
-1.23154e-32
-1.21414e-30
4.68693e-29
-6.39551e-28
-6.41408e-27
4.37953e-25
-1.23831e-23
2.46933e-22
-4.23777e-21
6.59734e-20
-8.07314e-19
6.27379e-18
3.2889e-18
-1.03042e-15
1.43444e-14
-5.96216e-14
-5.9119e-13
6.62876e-12
2.23255e-11
-2.36546e-10
-1.90869e-09
-4.97877e-09
1.39855e-08
1.94558e-07
9.52207e-07
3.12002e-06
7.8024e-06
1.53328e-05
2.40286e-05
3.13134e-05
3.49692e-05
3.59879e-05
3.62005e-05
3.63937e-05
3.66416e-05
3.63128e-05
3.21533e-05
2.08969e-05
7.95888e-06
-5.57037e-17
-5.48825e-18
2.85274e-20
-1.45614e-19
-1.2486e-19
-1.11605e-19
-7.81108e-20
1.29162e-19
1.33105e-19
5.06687e-20
8.43199e-19
1.03209e-18
1.60278e-18
2.53875e-18
4.66706e-18
4.73716e-18
6.47952e-18
5.40749e-18
2.30714e-18
7.2539e-20
-7.62041e-18
-9.90967e-18
-1.78741e-17
-3.59825e-17
-5.07818e-17
-4.74421e-17
-4.74667e-17
-4.6214e-17
-2.96032e-17
-1.63435e-17
5.11112e-17
1.07841e-16
1.68876e-16
1.84421e-16
2.346e-16
2.97329e-16
2.53495e-16
1.18423e-16
-4.72385e-17
-1.73421e-16
-2.63556e-16
-2.88019e-16
-2.86793e-16
-3.2829e-16
-1.72788e-16
-1.09089e-16
2.14821e-17
8.07148e-17
5.23551e-17
9.71153e-17
5.08454e-17
3.60398e-17
3.52465e-17
1.0422e-17
-2.28606e-19
6.06979e-18
4.84585e-18
2.15935e-18
3.62353e-18
-1.76023e-19
-5.90965e-19
4.02027e-23
-1.86325e-23
2.56441e-18
1.69377e-18
1.78767e-18
1.44521e-19
-2.53232e-20
1.32781e-19
2.48578e-19
3.82919e-19
4.15146e-19
5.70066e-19
1.84537e-19
-9.02484e-20
1.69629e-19
6.44174e-20
3.05456e-20
2.14394e-20
-1.00839e-20
-3.28827e-22
3.97304e-22
4.63507e-22
2.44325e-22
1.2638e-22
1.43492e-22
8.05274e-23
7.73645e-23
6.66419e-14
-1.40863e-13
1.58477e-13
-2.10654e-13
1.11624e-13
1.52929e-13
-7.94097e-14
-1.57303e-11
1.23426e-11
9.03237e-12
6.19445e-12
3.82418e-12
1.23748e-12
-2.40124e-13
-5.03866e-33
2.54359e-31
-1.50155e-30
-1.81431e-28
6.4712e-27
-1.27452e-25
1.84166e-24
-1.87596e-23
2.91138e-22
-5.79406e-21
1.30056e-19
-2.67566e-18
4.18783e-17
-4.58297e-16
1.71917e-15
2.25258e-14
-3.49863e-13
6.81093e-13
1.82869e-11
-2.66501e-11
-7.97881e-10
-3.62699e-09
-2.48814e-09
6.60553e-08
4.60159e-07
1.79853e-06
5.152e-06
1.12295e-05
1.96942e-05
2.80107e-05
3.34977e-05
3.56692e-05
3.60823e-05
3.6273e-05
3.65638e-05
3.66643e-05
3.50628e-05
2.71146e-05
1.39754e-05
-3.85628e-38
1.84427e-09
-7.25227e-18
1.31963e-18
-5.48147e-20
-1.16318e-19
-1.27195e-19
-2.30247e-20
-1.604e-21
3.34513e-19
2.75946e-19
5.63996e-19
5.85031e-19