/*--------------------------------*- C++ -*----------------------------------*\
  =========                 |
  \\      /  F ield         | OpenFOAM: The Open Source CFD Toolbox
   \\    /   O peration     | Website:  https://openfoam.org
    \\  /    A nd           | Version:  7
     \\/     M anipulation  |
\*---------------------------------------------------------------------------*/
FoamFile
{
    version     2.0;
    format      ascii;
    class       volScalarField;
    location    "0.25";
    object      T;
}
// * * * * * * * * * * * * * * * * * * * * * * * * * * * * * * * * * * * * * //

dimensions      [0 0 0 1 0 0 0];

internalField   nonuniform List<scalar> 
5936
(
0.509387
0.913125
0.998997
0.982338
1.00585
1.01593
1.00207
1.00703
1.00022
1.00104
0.999906
0.999796
0.999964
0.999872
1
0.999992
1.00001
1.00001
1
1
1
1
1.00001
1.00001
1
1.00001
1
1.00001
1.00001
1.00001
1.00001
1.00001
1.00001
1.00001
1.00001
1.00001
1
1.00001
1.00001
1.00001
1.00001
1.00001
1
1.00001
1.00001
1.00001
1.00001
1.00001
1.00001
1.00001
1.00001
1.00001
1
1
1
1.00001
1.00001
1.00001
1.00001
1.00001
1.00001
1.00001
1.00001
1.00001
1.00001
1.00001
1.00001
1.00001
1.00001
1.00001
1
1.00001
1.00001
1.00001
1.00001
1.00001
1.00001
1.00001
1.00001
1.00001
1.00001
1.00001
1.00001
1.00001
1.00001
1.00001
1
1.00001
1.00001
1.00001
1.00001
1.00001
1.00001
1.00001
1.00002
1.00002
1.00004
1.00001
1.00002
0.116256
-0.00308558
-0.000215307
3.81632e-05
1.43314e-07
-2.05716e-07
1.25336e-08
4.94641e-09
1.59695e-10
-2.08284e-11
-2.17238e-12
-5.80169e-14
1.35593e-15
1.55249e-16
4.40785e-18
-2.92285e-21
-3.67887e-21
-1.32239e-22
-1.81217e-24
2.31316e-26
2.08283e-27
5.05418e-29
3.82928e-31
-1.27898e-32
5.19854e-50
-1.32629e-33
1.19158e-32
6.34538e-31
4.24898e-29
2.16981e-27
1.24674e-26
6.76251e-25
-2.97852e-24
8.06178e-23
-2.91978e-22
-2.45312e-20
-7.3141e-20
-1.70054e-18
-8.55165e-18
-1.41139e-17
-3.20579e-17
1.11618e-16
-1.53261e-16
-3.2895e-16
4.65955e-15
1.69242e-15
1.24125e-14
2.56651e-14
2.14204e-14
2.35215e-14
0.999796
0.999742
1.00096
1.00065
0.999946
1.00043
0.995115
0.996574
1.00236
0.999357
1.01317
1.00919
1.01414
1.01412
0.981453
0.994168
0.891408
0.923142
0.751612
0.796505
0.592192
0.640315
0.438714
0.483982
0.304471
0.343147
0.202471
0.230948
0.127878
0.148208
0.0766056
0.0902297
0.0445195
0.0529708
0.0245333
0.0297338
0.0131958
0.0160644
0.00709398
0.00862674
0.00354004
0.00439268
0.00174573
0.00217573
0.000831186
0.00104883
0.000380154
0.000484189
0.000179915
0.000227648
8.05618e-05
0.000103556
3.55035e-05
4.58971e-05
1.56176e-05
2.01894e-05
6.59819e-06
8.62724e-06
2.7869e-06
3.65271e-06
1.1718e-06
1.5331e-06
4.82027e-07
6.34371e-07
1.92695e-07
2.55614e-07
7.72777e-08
1.02586e-07
2.94982e-08
3.95069e-08
1.15671e-08
1.54296e-08
4.44753e-09
5.96999e-09
1.63345e-09
2.21041e-09
6.1793e-10
8.32828e-10
2.23728e-10
3.0519e-10
7.95523e-11
1.08753e-10
2.95196e-11
4.01811e-11
1.0447e-11
1.43939e-11
3.81074e-12
5.25555e-12
1.33165e-12
1.88439e-12
4.90082e-13
7.06858e-13
2.00545e-13
2.95117e-13
7.1584e-14
3.43318e-14
1.07165e-13
-1.63919e-33
2.4616e-14
0.0134515
-0.00158035
6.45067e-05
7.89925e-06
-5.31022e-07
-3.58164e-08
1.24228e-08
1.22693e-09
-1.96566e-11
-8.27225e-12
-4.19038e-13
-2.99838e-15
5.94425e-16
2.99913e-17
4.25337e-19
-1.26003e-20
-8.02767e-22
-1.77554e-23
-7.7866e-26
9.12534e-27
3.59779e-28
5.54329e-30
-1.52409e-32
-0.000914318
-3.31347e-33
3.6729e-14
2.94778e-33
4.15553e-31
-1.49405e-29
-5.17924e-28
1.88752e-28
-1.84072e-25
-1.18804e-24
5.29546e-24
-2.29484e-22
5.21276e-21
5.50368e-20
3.12421e-19
5.12719e-18
9.45521e-18
2.39896e-17
-2.55171e-17
3.49995e-17
-2.62788e-16
2.93129e-15
2.29313e-15
2.19551e-15
2.1545e-14
2.72053e-14
0.000124347
0.0664654
1.62068e-06
0.457248
0.000136217
3.01611e-05
-1.66197e-06
-1.10605e-07
4.21713e-08
4.74066e-09
-3.15266e-11
-2.97111e-11
-1.77886e-12
-2.20124e-14
2.24791e-15
1.2883e-16
2.35546e-18
-4.16659e-20
-3.29175e-21
-8.74079e-23
-6.26134e-25
3.4846e-26
1.63828e-27
2.97345e-29
2.69247e-32
-1.24655e-32
4.66527e-31
-2.174e-29
-6.04726e-28
1.08284e-27
-2.00889e-25
-9.40768e-25
1.29055e-23
-2.93062e-22
5.81245e-21
6.38536e-20
3.3415e-19
6.40191e-18
1.1817e-17
3.00462e-17
-3.12467e-17
4.62063e-17
-3.67525e-16
4.32894e-15
3.55995e-15
4.04092e-15
3.17071e-14
3.94604e-14
3.62941e-33
-6.83115e-07
3.9636e-08
1.79742e-08
7.29641e-10
-7.02774e-11
-8.6558e-12
-2.67823e-13
3.7938e-15
6.13046e-16
2.05853e-17
8.60693e-20
-1.49707e-20
-6.29485e-22
-9.73842e-24
6.56733e-26
8.81219e-27
2.47076e-28
2.4864e-30
-4.4322e-32
9.07942e-31
4.94958e-29
2.79974e-27
8.52731e-27
6.93377e-25
-5.49509e-24
9.21369e-23
-2.33357e-22
-2.90245e-20
-7.31701e-20
-2.05052e-18
-1.09532e-17
-1.76732e-17
-4.31314e-17
1.5371e-16
-2.20642e-16
-2.68711e-16
6.76029e-15
2.67162e-15
1.865e-14
3.78812e-14
3.26838e-14
-0.00556338
-0.0053067
4.15422e-32
0.596807
-0.00118239
0.957461
1.00263
0.985749
1.00455
1.00816
1.00131
1.00391
0.999906
1.00039
0.999804
0.999645
0.99992
0.999819
0.99997
0.999929
0.999966
0.999931
0.999955
0.999905
0.999954
0.999888
0.999952
0.999884
0.999947
0.999882
0.999949
0.999877
0.999947
0.999874
0.999945
0.999875
0.99995
0.999873
0.999944
0.999876
0.999943
0.999871
0.999947
0.999868
0.999938
0.999874
0.999946
0.999873
0.999944
0.999881
0.999942
0.999879
0.999954
0.999878
0.999949
0.999881
0.999948
0.999879
0.999952
0.999878
0.999951
0.99988
0.999947
0.999881
0.999949
0.999876
0.999946
0.999873
0.999945
0.999875
0.999953
0.999874
0.999948
0.99988
0.999952
0.999876
0.999949
0.999881
0.999941
0.999878
0.999942
0.999868
0.999941
0.99987
0.999937
0.999876
0.999944
0.99987
0.999937
0.999874
0.999931
0.99987
0.999949
0.99988
0.999879
0.999857
0.999798
0.999826
0.9998
1.33526e-31
0.00149728
5.09628e-05
0.260827
-8.44201e-07
-1.41096e-06
-1.07993e-07
1.00062e-08
1.62845e-09
6.34359e-11
-2.25107e-12
-2.71699e-13
-8.74039e-15
4.99181e-17
1.39215e-17
4.28112e-19
2.74993e-21
-2.4931e-22
-1.06981e-23
-2.02764e-25
3.74744e-28
1.29669e-28
3.65156e-30
3.6083e-32
-2.04045e-31
-0.00319115
-0.00462937
-0.0032893
-1.32109e-33
6.8023e-14
1.21734e-13
-2.88313e-06
-5.47965e-06
-3.55692e-06
0.532982
5.98812e-29
4.99366e-27
-6.31183e-27
9.29924e-25
-9.65321e-24
1.08877e-22
1.41761e-22
-4.44018e-20
-1.10478e-19
-2.93031e-18
-2.04871e-17
-3.22818e-17
-8.84597e-17
2.94864e-16
-4.60185e-16
3.1981e-16
1.17492e-14
4.9241e-15
3.92604e-14
6.9108e-14
5.19363e-14
9.85636e-14
0.0517456
0.189653
0.0225021
-0.000107705
-0.000701135
2.69831e-05
1.74798e-05
2.81651e-06
1.00071
1.00059
0.999555
1.00026
0.996106
0.996715
1.00324
0.999377
1.01195
1.00902
1.0116
1.01643
0.980546
1.00256
0.894018
0.939398
0.755737
0.81648
0.597269
0.661442
0.443103
0.500112
0.312041
0.359817
0.207082
0.243315
0.130388
0.155384
0.0793571
0.0959197
0.0458386
0.0560175
0.0257456
0.0318022
0.0139134
0.0174651
0.00720929
0.00908847
0.00366718
0.00468964
0.00181403
0.00232602
0.000869931
0.00112447
0.000403451
0.000529847
0.000188508
0.000245362
8.53344e-05
0.000112125
3.86635e-05
5.10269e-05
1.67149e-05
2.22645e-05
7.04107e-06
9.41085e-06
3.07404e-06
4.09111e-06
1.26148e-06
1.70472e-06
5.10158e-07
6.89696e-07
2.11661e-07
2.86143e-07
8.33703e-08
1.13303e-07
3.21275e-08
4.41371e-08
1.2658e-08
1.72106e-08
4.84868e-09
6.63025e-09
1.81275e-09
2.51199e-09
6.82747e-10
9.38857e-10
2.4857e-10
3.43995e-10
9.04191e-11
1.26048e-10
3.27418e-11
4.52624e-11
1.18033e-11
1.64066e-11
4.48216e-12
6.17209e-12
1.70037e-12
2.34631e-12
7.46223e-13
1.04104e-12
0.780429
1.52807e-32
0.8305
1.92321e-31
-9.52317e-25
-1.42655e-24
4.23603e-05
6.03712e-31
1.28423e-32
-1.72947e-23
-4.80409e-07
-2.87601e-09
5.31374e-09
3.77788e-10
3.38857e-12
-1.03445e-12
-5.51075e-14
-8.38583e-16
4.84064e-17
2.85298e-18
4.93476e-20
-5.10692e-22
-6.05046e-23
-1.6035e-24
-1.6872e-26
4.95288e-28
2.47588e-29
4.44591e-31
1.13665e-30
-3.61529e-25
-2.52158e-25
-1.12748e-27
-7.24622e-28
-3.96776e-29
6.65804e-27
-5.99282e-29
1.47831e-27
1.16637e-24
-1.32007e-06
3.71796e-23
-5.19352e-22
6.9992e-21
1.0546e-19
3.73386e-19
1.06922e-17
2.29381e-17
5.42323e-17
-2.3208e-17
8.26739e-18
-5.71021e-16
9.10924e-15
5.26017e-15
1.00413e-14
5.91906e-14
7.00102e-14
1.79038e-08
4.5892e-17
-1.6805e-16
8.97146e-31
-3.60687e-14
3.35537e-13
-9.10547e-13
9.57564e-14
5.33605e-14
6.73786e-15
1.64015e-14
1.3997e-16
-6.22423e-16
4.01491e-16
-1.15574e-16
-4.34261e-17
-2.69138e-17
-4.14667e-18
-1.26736e-19
2.26517e-31
1.62961e-29
4.60881e-28
-3.70352e-27
-9.28178e-25
-4.39045e-23
-7.04723e-22
2.05622e-20
1.88705e-18
9.53662e-14
8.20117e-14
1.32078e-14
7.78267e-15
1.21381e-14
-8.24215e-16
4.3232e-17
-4.75088e-17
7.33226e-17
3.09743e-17
1.48806e-17
5.15797e-19
1.34786e-19
1.03601e-20
-6.78293e-22
3.89572e-27
2.15733e-30
9.55118e-29
1.37443e-27
-9.71894e-26
-6.7919e-24
-2.10923e-22
-4.89033e-22
2.37586e-19
1.05424e-17
1.22298e-16
-4.6138e-15
-1.99948e-13
-2.76375e-12
2.95107e-11
1.28925e-09
1.38598e-08
-3.98359e-08
5.35032e-23
-3.01098e-12
2.56231e-10
5.16112e-09
-3.6018e-07
9.47127e-29
-6.09696e-20
-3.79322e-27
-5.60542e-23
1.55347e-22
8.76902e-05
-1.41504e-24
0.994019
1.00605
1.00363
1.00315
1.00664
1.00022
1.00163
0.999664
0.999651
0.99987
0.999771
1.00003
1.00015
1.00007
1.00029
1.00005
1.00031
1.00006
1.00029
1.00005
1.00029
1.00004
1.00028
1.00005
1.00029
1.00005
1.0003
1.00004
1.00029
1.00006
1.00029
1.00006
1.0003
1.00005
1.00032
1.00008
1.00031
1.00006
1.00032
1.00006
1.0003
1.00006
1.00029
1.00003
1.00028
1.00005
1.00029
1.00005
1.0003
1.00004
1.00029
1.00005
1.00028
1.00004
1.00027
1.00003
1.00027
1.00005
1.00029
1.00005
1.0003
1.00004
1.00029
1.00005
1.00029
1.00004
1.00029
1.00004
1.00027
1.00004
1.00028
1.00004
1.00028
1.00005
1.00029
1.00006
1.00029
1.00005
1.00031
1.00007
1.00031
1.00008
1.00033
1.00003
1.00029
1.0002
1.00031
1.00036
1.00057
1.0005
-4.38913e-25
-7.39583e-14
-8.72178e-20
4.9995e-13
1.32064e-28
1.20065e-22
-6.4603e-17
-4.71103e-07
-1.26878e-06
-1.26941e-06
-2.15284e-08
1.51138e-09
1.92006e-10
1.65372e-13
5.59586e-12
2.04033e-13
-1.95174e-13
-2.12338e-13
8.83798e-31
-3.92965e-15
-6.4165e-16
-2.66413e-15
-3.51185e-16
1.66579e-13
2.45814e-18
1.6312e-19
3.27184e-21
-1.30207e-23
-2.64157e-24
-9.20224e-26
-1.12367e-27
1.4319e-29
-2.30725e-06
-2.94085e-06
3.9886e-11
2.48578e-11
-1.03168e-28
1.98499e-28
-2.67527e-23
-4.52425e-23
1.6769e-22
1.15973e-26
8.19003e-22
1.41915e-24
1.7369e-24
1.8697e-25
-1.09597e-27
1.54103e-26
0.000163206
0.000199996
-1.11336e-21
6.16835e-22
-4.77247e-26
-6.27004e-25
1.04728e-20
1.59871e-20
-1.19181e-19
-1.81047e-19
-5.5129e-18
-4.51524e-17
-7.56635e-17
-2.30314e-16
7.23056e-16
-1.19764e-15
2.43583e-15
2.69865e-14
1.29292e-14
1.06083e-13
1.51864e-13
2.31992e-13
-1.29007e-07
-8.97769e-08
0.999732
1.00021
0.997149
0.997843
1.00248
0.999206
1.00918
1.0067
1.01174
1.01483
0.991089
1.01068
0.913805
0.956811
0.783659
0.842746
0.627354
0.690062
0.470816
0.530246
0.334147
0.383461
0.22512
0.262335
0.142997
0.170025
0.0866479
0.104388
0.0506815
0.0619472
0.0285757
0.035373
0.015448
0.019301
0.00811821
0.0102048
0.00415667
0.0052932
0.00203098
0.00260935
0.000981451
0.00126687
0.000465532
0.000608
0.000215216
0.000280523
9.7771e-05
0.000129234
4.40956e-05
5.82102e-05
1.94168e-05
2.58646e-05
8.29526e-06
1.11451e-05
3.51219e-06
4.67745e-06
1.46957e-06
1.97337e-06
6.03925e-07
8.17044e-07
2.45128e-07
3.31587e-07
9.75206e-08
1.32578e-07
3.81042e-08
5.23374e-08
1.45335e-08
1.99102e-08
5.60679e-09
7.68446e-09
2.16326e-09
2.98564e-09
8.029e-10
1.1113e-09
2.96769e-10
4.1285e-10
1.0702e-10
1.49584e-10
3.90628e-11
5.4306e-11
1.39799e-11
1.9607e-11
5.20932e-12
7.19589e-12
2.14571e-12
2.89649e-12
1.32935e-13
2.34323e-12
-3.01496e-13
1.65623e-13
2.75778e-13
-1.78835e-27
4.56786e-31
-6.09551e-14
-1.84312e-14
-0.00203154
1.50547e-30
0.925505
-3.95188e-07
6.37389e-13
7.41748e-31
-2.06037e-17
1.0981e-18
2.44615e-13
1.41497e-10
-8.53469e-09
2.70786e-10
2.63637e-09
6.63815e-10
-1.33073e-14
5.4207e-18
7.73752e-19
2.61049e-20
2.52818e-22
-1.05218e-23
-5.49341e-25
-1.17062e-26
-4.3912e-29
-3.92272e-30
0.00943927
2.48169e-13
-6.7359e-07
-4.69295e-06
2.81664e-19
2.19083e-19
0.959508
3.23083e-27
1.44563e-22
3.26087e-17
2.39156e-17
4.6e-19
-6.08183e-17
6.5087e-19
5.95715e-17
1.2582e-16
4.75351e-18
-1.24704e-16
-1.07497e-15
2.39054e-14
1.08422e-14
3.1222e-14
2.10884e-13
0.0766983
0.0424948
1.07821e-12
-6.03763e-27
1.89844e-05
6.06686e-05
4.21422e-06
1.44051e-13
1.73262e-14
3.78334e-14
2.58962e-15
-1.61202e-15
9.85687e-16
-1.55951e-28
1.86577e-29
4.1235e-14
1.60528e-14
3.18639e-14
-0.00337533
0.000567061
-0.00368342
-1.64898e-15
0.684429
-8.66604e-17
-3.16168e-17
1.70135e-16
-4.41245e-28
-5.62163e-26
-1.99145e-24
-2.74817e-23
1.56426e-21
1.0893e-19
1.68721e-09
4.66388e-30
-0.000199307
-0.000924197
0.00020806
9.92672e-27
0.786863
3.31716e-30
2.32649e-18
-3.73464e-25
-9.34022e-24
1.51723e-29
5.13252e-23
5.76254e-10
1.57411e-20
6.07579e-19
-2.91741e-30
-1.81559e-19
7.81981e-17
-1.42047e-21
-5.95646e-26
2.19832e-22
-7.66834e-18
-3.02564e-16
-1.02857e-16
0.322904
1.25442e-14
1.0095
1.00892
1.01739
1.00266
1.00777
1.00027
1.00127
1.00008
0.999847
1.00031
1.00009
1.00047
1.00043
1.00049
1.00058
1.00053
1.00061
1.00055
1.00064
1.00053
1.00063
1.00056
1.00063
1.00054
1.00064
1.00052
1.00063
1.00054
1.00062
1.00056
1.00061
1.0005
1.00063
1.00054
1.00058
1.00051
1.00063
1.00052
1.00062
1.00056
1.00063
1.00052
1.00065
1.00053
1.00061
1.00053
1.00064
1.00051
1.00064
1.00054
1.00065
1.00055
1.00065
1.00053
1.00063
1.00056
1.00063
1.00054
1.00064
1.00051
1.00064
1.00052
1.00062
1.00053
1.00065
1.00054
1.00064
1.00055
1.00065
1.00053
1.00065
1.00056
1.00065
1.00062
1.00064
1.00056
1.00065
1.00058
1.00059
1.00057
1.00061
1.00054
1.00052
1.0004
0.999906
1.00009
-5.39916e-07
6.07973e-31
1.4034e-16
-2.16553e-26
-9.30236e-18
3.86197e-27
-1.53073e-08
3.24277e-20
5.01513e-13
-5.32895e-28
3.9689e-13
1.75763e-13
-2.56196e-19
-3.75084e-17
-1.4522e-15
-2.39798e-25
3.99736e-13
-2.22761e-29
-1.23016e-19
9.57014e-20
9.60946e-20
1.79393e-10
1.66731e-22
6.7875e-25
-1.99495e-25
-9.5056e-26
-7.32862e-26
9.48953e-14
4.69801e-19
-1.83137e-19
6.77068e-11
4.42391e-13
3.79136e-28
8.33575e-23
0.000131715
2.32557e-21
-7.9151e-25
-2.2459e-16
-1.48288e-16
0.873116
-5.61582e-16
-1.07847e-16
1.84818e-16
0.211744
-3.6558e-27
-2.24467e-27
2.86211e-16
-7.44332e-16
-2.65767e-28
-3.9785e-28
5.01239e-28
1.7142e-15
-2.92598e-15
-2.43462e-15
6.11409e-14
2.24494e-14
3.57772e-14
1.28036e-13
3.83719e-13
-2.416e-07
2.55385e-26
1.93318e-26
0.998109
0.998875
1.00111
0.998144
1.00652
1.0037
1.01229
1.01276
1.00269
1.01721
0.935798
0.977509
0.811832
0.87148
0.659049
0.723987
0.501577
0.565364
0.358705
0.411815
0.243593
0.284597
0.155238
0.185539
0.0950297
0.11476
0.056723
0.0695033
0.0319714
0.0398538
0.0173579
0.021778
0.00917232
0.0116165
0.00465527
0.00596956
0.00230436
0.00297374
0.0011299
0.00146834
0.000531857
0.000699121
0.000249336
0.0003266
0.000114734
0.000152126
5.14694e-05
6.81719e-05
2.31889e-05
3.08363e-05
9.80479e-06
1.33691e-05
3.99689e-06
5.42446e-06
1.73019e-06
2.33456e-06
7.09863e-07
9.70369e-07
2.86703e-07
3.91012e-07
1.16349e-07
1.59717e-07
4.46028e-08
6.19573e-08
1.72331e-08
2.37708e-08
6.73885e-09
9.29333e-09
2.56346e-09
3.56157e-09
9.78949e-10
1.35817e-09
3.65066e-10
5.11078e-10
1.31528e-10
1.85236e-10
4.85174e-11
6.78904e-11
1.74875e-11
2.47129e-11
6.33117e-12
8.85074e-12
2.42998e-12
3.31282e-12
3.27065e-19
3.54157e-19
-1.30254e-17
4.02889e-13
5.80421e-13
5.57478e-13
-6.67074e-16
-4.05455e-15
2.8285e-06
6.9878e-07
1.25802e-21
7.76647e-22
2.84868e-13
5.42883e-13
-1.01068e-27
-1.98562e-27
3.43761e-26
1.894e-10
3.60506e-10
1.76269e-10
-7.19097e-08
-2.03867e-07
-5.26989e-08
-4.27758e-18
-2.17301e-17
-1.85462e-18
-2.48276e-29
-1.50041e-26
0.000340136
0.000188512
-5.58253e-07
1.00296e-12
8.85569e-23
1.63432e-23
1.4108e-12
1.31469e-19
-7.44554e-16
-1.14128e-14
5.71646e-13
-2.58996e-25
-1.31086e-14
-4.95905e-29
-1.89629e-09
3.91378e-13
7.25284e-21
-9.27386e-09
7.12678e-24
-5.53083e-07
-1.15661e-14
-4.42162e-15
-5.42036e-10
4.97362e-21
1.56865e-12
-9.38338e-07
2.54403e-20
5.27785e-11
1.6612e-11
2.06097e-05
1.31119e-05
3.35372e-22
1.39129e-22
0.975284
-2.17382e-21
0.658408
2.28582e-21
-1.80571e-25
-2.37369e-25
5.11373e-17
-1.66741e-19
5.89962e-19
6.9231e-17
0.739573
-1.45599e-16
4.84551e-14
1.00121
-1.8544e-16
1.64087e-16
0.0211703
1.02943e-14
6.12148e-14
3.0822e-12
1.14262e-11
1.86312e-12
-6.31388e-23
4.83642e-22
3.87542e-16
-2.8515e-28
1.51881e-25
-1.04279e-22
1.41933e-16
-0.00111349
-0.000231927
-1.07049e-15
-7.55739e-16
-0.00495929
-0.00374778
2.17976e-20
1.29253e-20
-2.49371e-16
0.917818
-2.78337e-21
-1.13817e-24
3.36093e-14
8.27446e-14
2.35064e-15
1.27491e-14
8.62382e-14
-1.50591e-24
2.29751e-06
-4.70583e-16
1.00876
1.00378
1.0086
1.00003
1.00149
0.998959
0.998217
0.998934
0.997518
0.99915
0.997691
0.999216
0.997869
0.999225
0.9979
0.999319
0.998024
0.999295
0.998073
0.999306
0.998075
0.999328
0.998096
0.999318
0.998103
0.999255
0.998069
0.999319
0.99804
0.999259
0.998085
0.99934
0.998067
0.999292
0.998076
0.999214
0.997973
0.999314
0.998012
0.999256
0.998022
0.999305
0.99801
0.999357
0.998071
0.999313
0.998053
0.999271
0.997991
0.999334
0.998062
0.999298
0.998085
0.999305
0.998076
0.999322
0.998092
0.999309
0.99809
0.99931
0.998036
0.999287
0.998032
0.999263
0.997983
0.999332
0.998043
0.999279
0.998044
0.999131
0.997929
0.999189
0.997878
0.999111
0.99789
0.999272
0.99786
0.999317
0.998364
0.70525
1.66175e-12
2.95188e-22
-2.97023e-19
7.18541e-24
-1.75431e-19
4.13308e-21
9.08243e-13
1.94754e-12
7.92628e-16
-4.22671e-21
-7.69902e-09
1.79251e-13
-9.02705e-27
7.68626e-13
-2.63395e-15
-3.07174e-08
-2.3343e-08
0.323277
4.58881e-26
-2.6984e-27
1.0924e-16
1.37071e-13
-1.72732e-18
-9.20812e-19
8.31615e-25
3.67465e-25
3.73871e-14
1.11011e-12
7.09141e-13
5.12313e-23
3.12163e-23
2.19769e-24
-5.58312e-25
-2.19725e-24
1.05024e-13
-0.00922314
0.00119806
-1.0236e-27
-3.65304e-27
-1.06788e-26
-2.90434e-27
-1.37221e-15
8.40447e-16
5.40252e-17
4.68272e-14
0.0677484
6.72788e-16
-1.81989e-15
2.50277e-24
-0.00537453
0.000476969
4.09359e-24
0.0711745
0.0314037
0.109846
1.59897e-13
1.95485e-13
0.882811
0.720142
-7.1194e-15
-1.62538e-15
-4.08112e-21
5.65466e-21
0.999051
1.00346
1.00065
1.01184
1.0097
1.0126
1.02368
0.959024
0.995714
0.846717
0.905461
0.696949
0.764371
0.538618
0.605148
0.391024
0.448383
0.266538
0.312426
0.172221
0.206064
0.107167
0.129587
0.0645468
0.0790215
0.0370053
0.0461764
0.0200299
0.0253655
0.0105283
0.0134549
0.00544312
0.00698638
0.00271825
0.00352651
0.00132671
0.00173391
0.000639215
0.000842789
0.000297191
0.000394502
0.000137129
0.000182956
6.22504e-05
8.31942e-05
2.78143e-05
3.74638e-05
1.20145e-05
1.6383e-05
4.98701e-06
6.82833e-06
2.11501e-06
2.87946e-06
8.74834e-07
1.19968e-06
3.54891e-07
4.87057e-07
1.42964e-07
1.9706e-07
5.58213e-08
7.78654e-08
2.14655e-08
3.00292e-08
8.27796e-09
1.15667e-08
3.23126e-09
4.50473e-09
1.24699e-09
1.74943e-09
4.61205e-10
6.51512e-10
1.73197e-10
2.44923e-10
6.32381e-11
9.01961e-11
2.28632e-11
3.29392e-11
8.57255e-12
1.25121e-11
3.09585e-12
7.98624e-05
0.000199189
6.51806e-05
1.35856e-05
8.58555e-06
-4.67353e-27
-7.36866e-25
1.36335e-21
1.03086e-21
2.87354e-13
1.03406e-12
3.35482e-16
-6.31813e-16
-2.58364e-16
-9.964e-15
-3.49656e-15
-7.0768e-20
-9.26178e-11
8.32467e-28
3.76346e-13
1.022e-12
3.92392e-24
-0.0111152
-0.00767613
4.60942e-24
4.8005e-12
9.66333e-13
7.72124e-13
5.53419e-15
4.00935e-15
0.189314
1.99106e-22
9.88733e-14
1.89338e-14
-3.11306e-15
-9.36165e-08
-7.9739e-08
9.88007e-19
-5.60306e-20
6.91218e-14
4.66527e-14
-3.42033e-16
-2.59906e-16
9.4514e-22
4.94514e-05
3.83285e-05
2.16167e-13
-3.63924e-22
-2.88362e-22
-5.27012e-21
1.8393e-09
-1.31463e-18
-8.30713e-19
3.97672e-21
5.07044e-21
-2.29275e-19
5.08698e-12
3.7927e-12
1.00621
0.992025
-6.46528e-28
3.21251e-24
8.92729e-16
1.13491e-27
1.45876e-27
-1.93718e-28
0.239708
1.37312e-13
9.72314e-07
3.43652e-24
-1.32573e-09
-5.20548e-09
-6.85083e-10
0.996623
0.998827
-1.40858e-17
-2.11698e-17
1.49299e-16
4.92385e-21
-1.82906e-07
-2.41378e-07
-1.96465e-07
-0.000485326
-1.41833e-22
-2.41332e-22
1.29466e-21
-1.15968e-17
-7.242e-18
9.73885e-13
-0.00302714
-0.00763791
-0.00208433
-7.48144e-16
-7.08402e-16
1.39167e-23
5.60536e-26
7.75021e-26
3.0364e-26
3.12398e-12
2.982e-11
4.39853e-16
1.34935e-12
2.30951e-20
1.13065e-20
0.925744
1.43193e-12
1.64789e-23
4.02591e-13
1.00469
0.999714
1.00343
0.997557
0.998813
0.997069
0.997037
0.997046
0.996624
0.997014
0.996708
0.997003
0.996504
0.997101
0.996567
0.997062
0.996625
0.997063
0.99659
0.997092
0.996497
0.997146
0.996664
0.997031
0.996628
0.997053
0.996588
0.997123
0.996637
0.997122
0.996631
0.997057
0.996764
0.997054
0.996599
0.997166
0.99667
0.996986
0.996705
0.997082
0.996624
0.997062
0.996662
0.997067
0.996751
0.997049
0.99658
0.997112
0.996602
0.997057
0.996631
0.997049
0.996593
0.997061
0.996511
0.997124
0.996694
0.997089
0.996635
0.997036
0.996733
0.997059
0.996626
0.997078
0.9966
0.996975
0.99674
0.996818
0.996543
0.99688
0.996567
0.996731
0.996708
0.997054
0.99684
0.996482
0.461991
0.999283
2.50053e-05
8.94771e-15
8.08177e-13
1.37629e-12
1.34057e-23
1.0142e-13
-8.02147e-21
-6.14672e-17
-2.96563e-24
2.6949e-15
1.23705e-14
0.441552
1.73159e-22
4.88522e-24
4.78236e-24
3.34063e-23
1.23768e-12
3.01791e-13
1.07869e-12
-2.86595e-18
-2.90869e-08
7.22361e-21
2.32238e-12
-2.11708e-16
6.77096e-15
-1.27905e-15
3.67373e-25
-7.61116e-05
0.000118748
0.48031
2.45025e-24
1.51185e-24
0.978861
5.48846e-23
4.20712e-23
7.74174e-16
0.145154
-3.02527e-19
-4.25579e-19
1.22048e-18
-1.99628e-16
-4.24039e-17
0.379904
2.39998e-12
-2.31482e-17
-5.69367e-16
1.02026e-15
1.00025
1.00733
1.00981
1.00015
1.4503e-15
-3.26726e-15
3.20333e-15
1.19503e-13
5.47544e-13
0.810593
0.897875
0.516463
3.03486e-13
1.52657e-13
1.63438e-11
3.56806e-11
1.3757e-11
1.12538e-14
1.58062e-13
-7.5495e-20
-4.27119e-20
1.00943
1.01965
1.02415
0.980952
1.01115
0.883273
0.936907
0.740847
0.805967
0.582647
0.651901
0.426518
0.48995
0.29624
0.345539
0.195598
0.233109
0.12269
0.148868
0.0746447
0.0912099
0.0435992
0.0543778
0.0236458
0.0299657
0.012638
0.0160848
0.00657373
0.00848027
0.0032568
0.00424422
0.00162573
0.00212275
0.000792852
0.00104677
0.000369579
0.000490933
0.000174242
0.000232457
7.8279e-05
0.000105593
3.49717e-05
4.69104e-05
1.55936e-05
2.12024e-05
6.42309e-06
8.89862e-06
2.69273e-06
3.67271e-06
1.1288e-06
1.5603e-06
4.5019e-07
6.27318e-07
1.81286e-07
2.51641e-07
7.28823e-08
1.0222e-07
2.79346e-08
3.92734e-08
1.10261e-08
1.54468e-08
4.3232e-09
6.06617e-09
1.64123e-09
2.30088e-09
6.29313e-10
8.97871e-10
2.33115e-10
3.32989e-10
8.91613e-11
1.26769e-10
3.4357e-11
4.96761e-11
1.36101e-11
2.00678e-11
3.14426e-12
4.04099e-12
5.45962e-12
-1.58446e-24
-4.32345e-24
-2.0482e-22
2.64166e-22
1.94416e-12
3.23709e-12
-1.146e-15
1.89815e-15
-1.59389e-14
1.22451e-14
-4.71228e-10
9.37305e-24
1.91007e-05
6.89846e-06
-7.61624e-17
-4.01567e-17
4.03928e-13
-1.01552e-14
-8.114e-15
9.68068e-13
3.13033e-13
2.66358e-12
8.9148e-16
3.07019e-16
-3.16052e-21
-1.31458e-17
-9.84423e-18
1.69799e-22
0.227257
2.09835e-25
4.10724e-26
-1.51459e-15
6.76008e-05
6.18481e-05
-4.13328e-08
-5.39173e-08
-2.72004e-19
-0.00156276
2.40232e-12
-7.04168e-21
5.49988e-21
3.3882e-12
3.47098e-12
-5.0864e-19
-4.41153e-15
4.37245e-13
3.20338e-12
3.13074e-12
1.18662e-25
8.17013e-27
1.64045e-25
-2.57674e-09
-1.73374e-09
1.00361
-1.78005e-21
-8.91528e-21
0.0892682
0.0172099
2.1304e-16
-7.4509e-16
8.295e-12
0.000120581
0.000202127
0.000114228
2.10591e-21
-2.07115e-21
-3.01774e-22
-4.86439e-22
2.93702e-21
-0.00493957
-0.00408837
-1.14329e-21
-1.0789e-20
-2.56836e-08
-1.02354e-08
-6.7122e-26
-1.37286e-26
-2.17482e-24
4.73995e-06
1.36735e-06
-2.24821e-14
-1.94419e-18
-7.01075e-18
-4.64637e-18
-3.13838e-19
3.85476e-24
-1.55417e-18
1.00504
1.00223
1.00789
1.00123
1.00554
1.001
1.00485
1.00072
1.00461
1.00052
1.00414
1.00055
1.00408
1.00052
1.00413
1.00046
1.00418
1.00053
1.004
1.00057
1.00404
1.00039
1.00389
1.00052
1.00404
1.00068
1.0041
1.00071
1.00423
1.00051
1.00424
1.00067
1.00411
1.00084
1.0043
1.00059
1.00402
1.00062
1.00391
1.00056
1.00398
1.00057
1.00416
1.00052
1.00406
1.00056
1.00408
1.00053
1.00413
1.00049
1.00421
1.00072
1.00413
1.00073
1.00427
1.00056
1.00396
1.00044
1.00383
1.00047
1.00375
1.00061
1.00379
1.00063
1.00405
1.00091
1.00426
1.00172
1.005
-6.01386e-24
3.75366e-13
-4.10037e-22
-2.22618e-20
2.7692e-05
6.62546e-12
1.83852e-15
2.2935e-12
-2.51905e-14
-0.000932539
-0.000184433
5.72664e-12
1.03917e-11
5.85681e-12
8.21371e-12
9.14883e-12
-2.94639e-23
-5.77698e-24
2.51695e-13
-8.14604e-15
6.62818e-13
3.61601e-13
1.03124e-12
9.51037e-13
3.82137e-27
1.01884
-1.15821e-19
-7.89944e-20
0.997287
1.01913
0.917068
0.962414
0.784479
0.850268
0.628411
0.69786
0.472574
0.53772
0.331559
0.386481
0.2226
0.26386
0.142891
0.172732
0.0870219
0.106518
0.0517946
0.0638716
0.0283154
0.0359959
0.0150554
0.0192425
0.00798717
0.0102528
0.00400601
0.00525352
0.00200835
0.00261685
0.00100189
0.00130996
0.000467992
0.000626653
0.000219427
0.000291928
0.000101535
0.000136916
4.41609e-05
5.99652e-05
2.00402e-05
2.69328e-05
8.48119e-06
1.17546e-05
3.4473e-06
4.77167e-06
1.46237e-06
2.00329e-06
6.01028e-07
8.37892e-07
2.37808e-07
3.30932e-07
9.859e-08
1.36247e-07
3.79181e-08
5.37978e-08
1.47301e-08
2.06895e-08
5.82155e-09
8.19577e-09
2.17091e-09
3.08033e-09
8.494e-10
1.18478e-09
3.25789e-10
4.60623e-10
1.25835e-10
1.77154e-10
5.35966e-11
7.49927e-11
2.4181e-11
1.61377e-11
3.63305e-11
-1.69959e-17
2.90932e-16
1.27749e-07
7.49275e-07
4.2019e-09
-3.48006e-21
-1.98752e-21
5.59334e-12
7.97624e-12
3.20137e-15
-1.08616e-14
-0.00742224
-0.00930609
6.18981e-14
4.78511e-13
9.07606e-13
3.02981e-12
-2.75363e-10
-6.14822e-11
1.97361e-14
-3.20746e-14
5.64812e-27
2.40945e-26
8.62016e-27
0.800219
-3.66442e-17
1.00683
7.83193e-24
8.76217e-24
1.00115
1.01223
1.00922
2.18567e-13
6.09107e-14
1.18794e-12
-2.6461e-17
1.0187
3.27276e-15
-2.00425e-22
-8.58451e-10
-1.97556e-20
-2.37081e-18
1.38547e-12
1.00575
1.01458
2.04205e-15
4.8126e-16
-0.00321188
-1.55175e-17
4.25322e-19
3.57534e-05
4.77564e-05
8.8004e-08
-7.66234e-20
-6.06189e-21
1.01281e-14
8.53187e-15
2.16856e-24
-0.00188703
-6.69921e-22
-7.3924e-20
-3.60812e-15
-2.78575e-15
-5.2408e-19
4.83667e-24
2.76758e-26
4.95956e-12
2.19283e-25
-3.24417e-12
-7.80567e-09
0.967412
0.992488
0.882768
-2.91009e-09
-2.27137e-09
-1.4072e-18
0.406914
0.526945
0.185626
-4.16269e-13
4.13469e-12
1.99168e-18
-3.92864e-19
-1.2382e-20
-1.55028e-20
-9.46719e-21
-1.25431e-15
2.3804e-15
-1.41313e-20
2.44803e-05
1.0762e-05
-5.9006e-22
9.12842e-05
0.000123941
4.23316e-15
8.9801e-15
4.86484e-15
6.65615e-12
-7.4301e-19
-5.29676e-19
-0.00663576
-0.00666276
-3.13155e-14
-4.54823e-24
-9.08265e-24
-1.07084e-12
2.22841e-13
-3.63223e-25
-3.17527e-25
-6.25497e-24
2.7343e-14
1.3768e-20
-2.30726e-17
3.49219e-08
-4.13824e-09
-4.53822e-14
1.72382e-24
7.73795e-12
7.01791e-14
2.42037e-12
4.95544e-17
2.66412e-16
2.04227e-17
1.01702
-1.52065e-17
-7.90179e-18
1.01441
1.02133
1.01324
1.01901
1.01293
1.01816
1.01238
1.0179
1.0121
1.01734
1.01259
1.01758
1.01255
1.01778
1.01192
1.01734
1.01208
1.01692
1.01214
1.01745
1.01202
1.01699
1.01209
1.01715
1.01224
1.01727
1.01228
1.0172
1.01189
1.01706
1.01195
1.01679
1.0121
1.01724
1.01208
1.01736
1.01219
1.01749
1.01214
1.01707
1.01208
1.01716
1.01207
1.01713
1.01259
1.01755
1.01256
1.01775
1.01193
1.01731
1.0123
1.01697
1.01226
1.01757
1.01177
1.01701
1.01206
1.01683
1.01232
1.01709
1.01292
1.01699
1.01355
1.01754
1.01493
1.01839
1.01765
-6.26893e-20
2.39004e-13
1.00784
-8.53862e-22
6.62372e-13
3.58311e-05
-9.47514e-22
-1.22318e-18
-8.86535e-19
4.1126e-23
-2.87297e-24
-3.35938e-20
-1.09421e-19
3.92053e-16
-1.66802e-15
-6.23922e-15
5.69806e-25
2.4022e-14
-4.58621e-14
3.0469e-13
1.30602e-11
7.0878e-23
-2.30956e-23
-1.29418e-23
3.4855e-25
-7.6705e-09
-1.06024e-08
-6.87083e-09
-4.68483e-21
-3.1321e-21
2.45477e-18
1.37643e-12
9.40253e-13
1.20374e-11
1.82062e-11
1.00778
1.02108
7.16458e-21
5.05313e-21
0.942979
0.980005
0.825411
0.882701
0.677267
0.743555
0.51722
0.581416
0.37198
0.427505
0.253996
0.29805
0.165663
0.197139
0.103106
0.1249
0.0604016
0.0740512
0.0337853
0.0422522
0.0183941
0.0232498
0.00971832
0.0123464
0.00503767
0.00649419
0.00252187
0.0032832
0.00124009
0.00161787
0.000598231
0.000789643
0.000283598
0.000375056
0.000130769
0.000173781
5.8152e-05
7.85777e-05
2.56744e-05
3.45463e-05
1.10253e-05
1.49872e-05
4.6834e-06
6.42947e-06
1.91406e-06
2.63588e-06
7.93948e-07
1.08718e-06
3.24233e-07
4.50659e-07
1.28857e-07
1.78252e-07
5.14925e-08
7.16532e-08
2.05057e-08
2.87042e-08
7.91747e-09
1.10357e-08
3.03812e-09
4.29219e-09
1.15851e-09
1.63851e-09
4.44092e-10
6.24477e-10
1.76218e-10
2.45179e-10
7.57877e-11
1.00505e-10
1.73257e-18
6.5675e-19
-1.8707e-14
2.9707e-14
-0.00478541
-0.00861949
1.0499e-12
3.33176e-12
6.22981e-12
1.64678e-11
-2.67903e-11
-7.00119e-14
-7.33873e-14
1.01842
1.01996
-8.94063e-22
5.38799e-16
4.61205e-17
-1.33804e-09
1.7237e-23
-1.11134e-11
1.40299e-12
-4.17947e-17
5.46321e-17
1.02374
4.62115e-11
3.824e-14
1.80865e-17
9.70698e-18
-0.00261047
4.01998e-18
5.05258e-18
1.82037e-18
1.15854e-14
3.9014e-07
-6.24053e-10
1.70572e-14
-2.13029e-20
-0.000893261
4.04694e-15
-8.15464e-15
-1.09639e-18
-1.68394e-24
2.93604e-07
-5.91138e-20
-1.50271e-22
0.984636
0.95364
2.64341e-12
0.417362
1.52416e-11
2.23109e-11
-7.20941e-21
5.60961e-14
3.93013e-14
1.87678e-11
1.32451e-11
8.78366e-23
1.33791e-22
-1.40598e-21
0.0312178
8.4893e-12
-9.14934e-14
-2.20665e-19
-1.7269e-18
-2.31034e-20
6.97894e-15
-5.43591e-22
-1.78564e-11
0.00964877
0.779001
0.862035
0.523457
-1.574e-20
0.120283
-3.06491e-11
-1.71097e-20
-2.94665e-20
1.37566e-11
1.94467e-11
2.14923e-11
-0.000103712
-1.25921e-05
8.25267e-06
2.9919e-06
1.40856e-14
1.32043e-05
-1.26089e-23
1.42003e-23
6.48327e-07
-0.00424212
2.00018e-12
-0.0059819
-0.0068241
-1.47204e-09
-7.80387e-10
3.56718e-12
4.10045e-13
2.27653e-13
-5.02635e-05
-5.62174e-06
-1.81166e-10
1.2553e-06
8.8971e-07
-9.11713e-23
-2.48427e-14
9.14905e-15
-5.6328e-11
-3.78156e-11
1.15068e-14
4.04655e-15
9.47558e-16
6.91467e-16
1.02241
2.05399e-06
3.00443e-12
1.02069
1.02251
1.01957
1.02069
1.01923
1.02015
1.01878
1.0201
1.01856
1.01915
1.01904
1.01951
1.01864
1.01971
1.01822
1.01911
1.01869
1.01876
1.01896
1.02007
1.01844
1.01923
1.01869