/*--------------------------------*- C++ -*----------------------------------*\
  =========                 |
  \\      /  F ield         | OpenFOAM: The Open Source CFD Toolbox
   \\    /   O peration     | Website:  https://openfoam.org
    \\  /    A nd           | Version:  7
     \\/     M anipulation  |
\*---------------------------------------------------------------------------*/
FoamFile
{
    version     2.0;
    format      ascii;
    class       volScalarField;
    location    "0.05";
    object      T;
}
// * * * * * * * * * * * * * * * * * * * * * * * * * * * * * * * * * * * * * //

dimensions      [0 0 0 1 0 0 0];

internalField   nonuniform List<scalar> 
2500
(
0.501434
0.082821
-0.0165798
-0.0166215
-0.00531901
-0.000757636
3.38619e-05
5.26526e-05
2.10846e-05
6.43596e-06
1.69307e-06
3.93081e-07
7.84251e-08
1.17871e-08
3.54801e-10
-6.93501e-10
-3.94781e-10
-1.58239e-10
-5.48428e-11
-1.74482e-11
-5.22546e-12
-1.49092e-12
-4.07432e-13
-1.06728e-13
-2.67033e-14
-6.3197e-15
-1.38488e-15
-2.67098e-16
-3.84721e-17
-1.92484e-19
2.94583e-18
1.65526e-18
6.88319e-19
2.52306e-19
8.60866e-20
2.80119e-20
8.80577e-21
2.69499e-21
8.0696e-22
2.37184e-22
6.85867e-23
1.9543e-23
5.49273e-24
1.52371e-24
4.17297e-25
1.12819e-25
3.00965e-26
7.91527e-27
2.04795e-27
4.78688e-28
0.940173
0.465734
0.10545
-0.0088089
-0.0131765
-0.00457608
-0.00110212
-0.000214311
-2.82241e-05
1.07542e-06
2.55929e-06
1.22753e-06
4.45149e-07
1.40627e-07
4.04508e-08
1.07553e-08
2.64108e-09
5.88125e-10
1.12355e-10
1.4992e-11
-6.62942e-13
-1.54974e-12
-8.00159e-13
-3.18225e-13
-1.12226e-13
-3.67932e-14
-1.14574e-14
-3.42737e-15
-9.91077e-16
-2.77945e-16
-7.56872e-17
-1.99979e-17
-5.11197e-18
-1.25671e-18
-2.93756e-19
-6.38355e-20
-1.2245e-20
-1.75623e-21
-6.44798e-24
1.36164e-22
7.66305e-23
3.20171e-23
1.18127e-23
4.06255e-24
1.33414e-24
4.23782e-25
1.31208e-25
3.97921e-26
1.18553e-26
3.57143e-27
1.04756
0.703428
0.260423
0.0451928
-0.00269685
-0.0043337
-0.00185067
-0.000614131
-0.000174395
-4.32694e-05
-9.14188e-06
-1.44721e-06
-4.99371e-08
8.84614e-08
5.19689e-08
2.12139e-08
7.42313e-09
2.36455e-09
7.02506e-10
1.96639e-10
5.1947e-11
1.28733e-11
2.93946e-12
5.91132e-13
9.07578e-14
2.61134e-15
-5.92649e-15
-3.53208e-15
-1.49779e-15
-5.52928e-16
-1.88591e-16
-6.09808e-17
-1.89451e-17
-5.69849e-18
-1.66709e-18
-4.75594e-19
-1.32473e-19
-3.60295e-20
-9.55693e-21
-2.46571e-21
-6.15747e-22
-1.47553e-22
-3.3394e-23
-6.90723e-24
-1.19972e-24
-1.19916e-25
2.87924e-26
2.57716e-26
1.21584e-26
5.6364e-27
1.05202
0.785384
0.354601
0.0994177
0.0178763
0.00139604
-0.000710821
-0.000525234
-0.000229843
-8.20362e-05
-2.5774e-05
-7.3093e-06
-1.87388e-06
-4.2443e-07
-7.8409e-08
-8.00675e-09
2.12695e-09
1.86796e-09
8.70788e-10
3.33014e-10
1.14506e-10
3.66492e-11
1.1095e-11
3.20091e-12
8.82084e-13
2.3168e-13
5.75467e-14
1.32803e-14
2.73299e-15
4.44514e-16
2.49991e-17
-2.26908e-17
-1.49319e-17
-6.5872e-18
-2.50038e-18
-8.73781e-19
-2.89205e-19
-9.19875e-20
-2.83532e-20
-8.51227e-21
-2.49717e-21
-7.17205e-22
-2.01863e-22
-5.56867e-23
-1.50467e-23
-3.97573e-24
-1.02424e-24
-2.56008e-25
-6.15576e-26
-1.13867e-26
1.04514
0.803529
0.393567
0.132214
0.0355774
0.00864122
0.00171314
0.000151032
-7.85267e-05
-6.04628e-05
-2.78615e-05
-1.05764e-05
-3.57302e-06
-1.10561e-06
-3.16533e-07
-8.36699e-08
-2.00761e-08
-4.16364e-09
-6.30287e-10
1.901e-12
5.59537e-11
3.19384e-11
1.34808e-11
4.97655e-12
1.69384e-12
5.4401e-13
1.66804e-13
4.9121e-14
1.39261e-14
3.799e-15
9.9347e-16
2.46941e-16
5.73357e-17
1.19657e-17
2.01429e-18
1.45525e-19
-8.59382e-20
-6.13187e-20
-2.78438e-20
-1.07803e-20
-3.83253e-21
-1.2896e-21
-4.17072e-22
-1.30793e-22
-3.99888e-23
-1.19617e-23
-3.5086e-24
-1.01056e-24
-2.85915e-25
-7.56907e-26
1.0421
0.80568
0.406175
0.147258
0.046263
0.0142799
0.00415063
0.001057
0.000217479
2.47131e-05
-6.825e-06
-6.53992e-06
-3.25135e-06
-1.31063e-06
-4.70002e-07
-1.55197e-07
-4.78963e-08
-1.38858e-08
-3.77258e-09
-9.49175e-10
-2.14545e-10
-4.00495e-11
-4.18021e-12
1.13045e-12
1.02927e-12
4.98997e-13
1.99456e-13
7.20632e-14
2.43768e-14
7.85247e-15
2.4309e-15
7.26819e-16
2.1038e-16
5.89699e-17
1.59781e-17
4.16628e-18
1.03636e-18
2.41804e-19
5.10325e-20
8.8285e-21
7.50461e-22
-3.16187e-22
-2.45285e-22
-1.14287e-22
-4.4983e-23
-1.62134e-23
-5.52664e-24
-1.8106e-24
-5.75034e-25
-1.795e-25
1.04121
0.805309
0.409539
0.153023
0.0514785
0.017663
0.00592153
0.00185125
0.000533115
0.000137972
3.0185e-05
4.45862e-06
-3.25153e-07
-6.46272e-07
-3.61385e-07
-1.55824e-07
-5.90825e-08
-2.05971e-08
-6.73352e-09
-2.08335e-09
-6.11963e-10
-1.70334e-10
-4.4562e-11
-1.07504e-11
-2.28482e-12
-3.7122e-13
-1.19542e-14
2.6447e-14
1.66318e-14
7.40481e-15
2.86245e-15
1.01998e-15
3.43767e-16
1.11053e-16
3.46453e-17
1.04829e-17
3.08341e-18
8.82279e-19
2.45407e-19
6.61957e-20
1.7233e-20
4.29247e-21
1.00648e-21
2.1472e-22
3.81167e-23
3.70196e-24
-1.11047e-24
-9.56578e-25
-4.57165e-25
-2.04469e-25
1.04098
0.804938
0.410259
0.154954
0.0536771
0.0193745
0.00697454
0.00240043
0.00078579
0.000243076
7.03252e-05
1.86626e-05
4.35025e-06
7.8304e-07
4.05888e-08
-5.44036e-08
-3.7632e-08
-1.76979e-08
-7.11754e-09
-2.60961e-09
-8.95872e-10
-2.91742e-10
-9.0702e-11
-2.69825e-11
-7.6709e-12
-2.07271e-12
-5.2584e-13
-1.22005e-13
-2.42505e-14
-3.23547e-15
2.93391e-16
4.68485e-16
2.50964e-16
1.06181e-16
4.01616e-17
1.41813e-17
4.77029e-18
1.54541e-18
4.85287e-19
1.48279e-19
4.41813e-20
1.28498e-20
3.64754e-21
1.00926e-21
2.71469e-22
7.06396e-23
1.76324e-23
4.1571e-24
8.98038e-25
1.00837e-25
1.04093
0.804769
0.410357
0.155529
0.0545064
0.0201396
0.00751849
0.00272386
0.00095411
0.000321947
0.000104225
3.21972e-05
9.41193e-06
2.56526e-06
6.32652e-07
1.30946e-07
1.67293e-08
-2.96941e-09
-3.54865e-09
-1.90178e-09
-8.20762e-10
-3.17029e-10
-1.13911e-10
-3.87684e-11
-1.26165e-11
-3.9452e-12
-1.1876e-12
-3.43908e-13
-9.5459e-14
-2.51978e-14
-6.22592e-15
-1.39168e-15
-2.56953e-16
-2.52911e-17
8.51075e-18
7.39172e-18
3.62601e-18
1.48476e-18
5.53467e-19
1.94286e-19
6.53068e-20
2.12186e-20
6.70148e-21
2.06465e-21
6.21821e-22
1.83278e-22
5.28799e-23
1.49264e-23
4.11651e-24
9.90559e-25
1.04092
0.804709
0.410347
0.155681
0.054792
0.0204504
0.00777114
0.00289301
0.00105232
0.00037298
0.000128463
4.28723e-05
1.38176e-05
4.28157e-06
1.26704e-06
3.54128e-07
9.15599e-08
2.09233e-08
3.68947e-09
1.61504e-10
-2.76794e-10
-1.8943e-10
-9.00655e-11
-3.6944e-11
-1.39082e-11
-4.93339e-12
-1.67093e-12
-5.44358e-13
-1.71254e-13
-5.2113e-14
-1.53354e-14
-4.35383e-15
-1.18643e-15
-3.07277e-16
-7.41953e-17
-1.60084e-17
-2.72862e-18
-1.5558e-19
1.58563e-19
1.09256e-19
5.07982e-20
2.03547e-20
7.51411e-21
2.62824e-21
8.83652e-22
2.87963e-22
9.14235e-23
2.83705e-23
8.6224e-24
2.42887e-24
1.04091
0.804689
0.410333
0.155715
0.0548826
0.0205671
0.00787897
0.00297364
0.00110406
0.000402497
0.000143782
5.02227e-05
1.71163e-05
5.67822e-06
1.82852e-06
5.69478e-07
1.70626e-07
4.87714e-08
1.31074e-08
3.21824e-09
6.73134e-10
9.17856e-11
-1.15425e-11
-1.66677e-11
-9.27675e-12
-4.11403e-12
-1.63243e-12
-6.03965e-13
-2.1242e-13
-7.17623e-14
-2.34258e-14
-7.41376e-15
-2.27829e-15
-6.79889e-16
-1.96745e-16
-5.50233e-17
-1.47788e-17
-3.76875e-18
-8.92271e-19
-1.86385e-19
-2.92389e-20
-2.95195e-22
2.52949e-21
1.54648e-21
6.94941e-22
2.74498e-22
1.00702e-22
3.51577e-23
1.18278e-23
3.78799e-24
1.04091
0.804684
0.410325
0.155721
0.0549091
0.020608
0.00792189
0.00300928
0.00112918
0.000418117
0.000152573
5.47799e-05
1.93202e-05
6.68199e-06
2.26221e-06
7.48234e-07
2.41217e-07
7.55673e-08
2.29079e-08
6.67732e-09
1.8521e-09
4.79719e-10
1.11506e-10
2.08342e-11
1.63939e-12
-1.11279e-12
-8.69824e-13
-4.33528e-13
-1.83724e-13
-7.12326e-14
-2.60328e-14
-9.10348e-15
-3.07186e-15
-1.00525e-15
-3.19955e-16
-9.91968e-17
-2.99668e-17
-8.81379e-18
-2.51837e-18
-6.96222e-19
-1.84907e-19
-4.65779e-20
-1.08522e-20
-2.20501e-21
-3.19445e-22
1.24171e-23
3.7125e-23
2.12019e-23
9.31276e-24
3.78873e-24
1.04091
0.804682
0.410322
0.155721
0.0549162
0.0206215
0.00793799
0.00302408
0.00114057
0.000425799
0.000157236
5.73762e-05
2.06647e-05
7.33624e-06
2.56374e-06
8.80668e-07
2.9692e-07
9.80914e-08
3.16909e-08
9.98781e-09
3.06036e-09
9.07231e-10
2.58232e-10
6.96749e-11
1.73922e-11
3.79987e-12
6.05876e-13
-9.39922e-15
-6.84838e-14
-4.23153e-14
-1.96829e-14
-8.07982e-15
-3.08012e-15
-1.11559e-15
-3.88571e-16
-1.31079e-16
-4.30091e-17
-1.37622e-17
-4.30075e-18
-1.31323e-18
-3.9166e-19
-1.13935e-19
-3.22426e-20
-8.83606e-21
-2.32695e-21
-5.80812e-22
-1.33716e-22
-2.6602e-23
-3.62675e-24
8.59476e-25
1.04091
0.804682
0.410321
0.155721
0.0549179
0.0206257
0.00794371
0.00302989
0.00114545
0.000429353
0.000159551
5.87549e-05
2.14256e-05
7.72991e-06
2.75625e-06
9.70257e-07
3.36803e-07
1.1515e-07
3.87252e-08
1.27923e-08
4.14389e-09
1.31362e-09
4.06401e-10
1.22238e-10
3.55439e-11
9.90176e-12
2.60139e-12
6.24591e-13
1.26706e-13
1.56729e-14
-3.17769e-15
-3.63558e-15
-1.97569e-15
-8.76438e-16
-3.51407e-16
-1.32253e-16
-4.75776e-17
-1.6526e-17
-5.57603e-18
-1.83452e-18
-5.89914e-19
-1.85665e-19
-5.72283e-20
-1.72741e-20
-5.1018e-21
-1.47181e-21
-4.13518e-22
-1.12602e-22
-2.95105e-23
-6.14205e-24
1.04091
0.804682
0.410321
0.15572
0.0549183
0.0206269
0.00794565
0.00303208
0.00114744
0.000430912
0.000160639
5.94446e-05
2.18299e-05
7.9514e-06
2.87073e-06
1.02646e-06
3.63168e-07
1.2702e-07
4.38743e-08
1.49509e-08
5.02073e-09
1.65949e-09
5.39106e-10
1.71836e-10
5.36204e-11
1.6331e-11
4.83379e-12
1.3814e-12
3.77104e-13
9.64526e-14
2.21892e-14
4.09681e-15
3.01924e-16
-2.32999e-16
-1.79352e-16
-8.98115e-17
-3.84857e-17
-1.51543e-17
-5.64653e-18
-2.02072e-18
-7.00515e-19
-2.36487e-19
-7.80083e-20
-2.51981e-20
-7.98122e-21
-2.48055e-21
-7.5658e-22
-2.26358e-22
-6.64033e-23
-1.71413e-23
1.04091
0.804682
0.410321
0.15572
0.0549183
0.0206273
0.00794628
0.00303286
0.00114822
0.000431565
0.000161125
5.97723e-05
2.20332e-05
8.06904e-06
2.93479e-06
1.05954e-06
3.79462e-07
1.34715e-07
4.73719e-08
1.64863e-08
5.67349e-09
1.92891e-09
6.47271e-10
2.14148e-10
6.97696e-11
2.23515e-11
7.02815e-12
2.16379e-12
6.50101e-13
1.8968e-13
5.33414e-14
1.42761e-14
3.55076e-15
7.77887e-16
1.26383e-16
-3.57073e-19
-1.33605e-17
-8.47122e-18
-4.00703e-18
-1.67227e-18
-6.49116e-19
-2.39928e-19
-8.5508e-20
-2.9601e-20
-1e-20
-3.30686e-21
-1.07258e-21
-3.41664e-22
-1.07023e-22
-3.03803e-23
1.04091
0.804682
0.410321
0.15572
0.0549183
0.0206274
0.00794647
0.00303313
0.00114851
0.000431828
0.000161334
5.99211e-05
2.21307e-05
8.12847e-06
2.96879e-06
1.07796e-06
3.88964e-07
1.39408e-07
4.96008e-08
1.75077e-08
6.12652e-09
2.12386e-09
7.28851e-10
2.47404e-10
8.29975e-11
2.74921e-11
8.98214e-12
2.89094e-12
9.15211e-13
2.84427e-13
8.65449e-14
2.56875e-14
7.39649e-15
2.04822e-15
5.37354e-16
1.29687e-16
2.68069e-17
3.60155e-18
-4.93265e-19
-6.89774e-19
-3.88813e-19
-1.76322e-19
-7.20636e-20
-2.76486e-20
-1.01525e-20
-3.60616e-21
-1.24708e-21
-4.21627e-22
-1.39811e-22
-4.2535e-23
1.04091
0.804682
0.410321
0.15572
0.0549183
0.0206274
0.00794653
0.00303322
0.00114861
0.00043193
0.000161419
5.99861e-05
2.21756e-05
8.15719e-06
2.98602e-06
1.08773e-06
3.9423e-07
1.42123e-07
5.09447e-08
1.81491e-08
6.42252e-09
2.25632e-09
7.86456e-10
2.71801e-10
9.30762e-11
3.15598e-11
1.05879e-11
3.51169e-12
1.15041e-12
3.71836e-13
1.18428e-13
3.71073e-14
1.14141e-14
3.43676e-15
1.00877e-15
2.86863e-16
7.82422e-17
2.01072e-17
4.69333e-18
9.02749e-19
8.74484e-20
-3.82837e-20
-3.35991e-20
-1.74874e-20
-7.67622e-21
-3.08451e-21
-1.17204e-21
-4.28007e-22
-1.51667e-22
-4.94212e-23
1.04091
0.804682
0.410321
0.15572
0.0549183
0.0206274
0.00794654
0.00303325
0.00114865
0.000431968
0.000161454
6.00134e-05
2.21955e-05
8.17053e-06
2.9944e-06
1.09269e-06
3.97021e-07
1.43621e-07
5.17164e-08
1.85319e-08
6.60596e-09
2.3415e-09
8.24872e-10
2.88664e-10
1.00294e-10
3.45767e-11
1.18212e-11
4.00535e-12
1.34409e-12
4.46386e-13
1.46602e-13
4.75681e-14
1.5232e-14
4.80704e-15
1.49254e-15
4.5489e-16
1.35658e-16
3.94053e-17
1.1071e-17
2.97382e-18
7.47637e-19
1.67985e-19
2.94285e-20
1.28577e-21
-2.25297e-21
-1.57728e-21
-7.74687e-22
-3.3133e-22
-1.31326e-22
-4.70385e-23
1.04091
0.804682
0.410321
0.15572
0.0549183
0.0206274
0.00794655
0.00303326
0.00114866
0.000431982
0.000161467
6.00245e-05
2.2204e-05
8.17652e-06
2.99833e-06
1.09511e-06
3.98441e-07
1.44414e-07
5.21407e-08
1.87503e-08
6.71445e-09
2.39368e-09
8.49232e-10
2.99726e-10
1.05189e-10
3.66918e-11
1.27146e-11
4.37476e-12
1.49378e-12
5.05895e-13
1.6983e-13
5.64773e-14
1.8592e-14
6.05374e-15
1.94784e-15
6.18615e-16
1.93643e-16
5.96342e-17
1.80228e-17
5.32694e-18
1.53196e-18
4.25293e-19
1.12451e-19
2.76041e-20
5.93101e-21
9.13488e-22
-3.52212e-23
-1.18266e-22
-7.2212e-23
-3.25826e-23
1.04091
0.804682
0.410321
0.15572
0.0549183
0.0206274
0.00794655
0.00303326
0.00114867
0.000431987
0.000161472
6.0029e-05
2.22075e-05
8.17912e-06
3.00011e-06
1.09626e-06
3.99139e-07
1.44819e-07
5.23651e-08
1.88699e-08
6.77598e-09
2.42429e-09
8.64001e-10
3.06653e-10
1.08354e-10
3.81028e-11
1.33294e-11
4.63684e-12
1.60326e-12
5.5075e-13
1.87873e-13
6.36085e-14
2.13636e-14
7.11365e-15
2.34691e-15
7.66613e-16
2.47729e-16
7.91178e-17
2.4943e-17
7.75066e-18
2.36911e-18
7.10428e-19
2.08203e-19
5.92955e-20
1.62636e-20
4.22942e-21
1.01106e-21
2.05801e-22
2.61138e-23
-5.10153e-24
1.04091
0.804682
0.410321
0.15572
0.0549183
0.0206274
0.00794655
0.00303326
0.00114867
0.000431989
0.000161474
6.00307e-05
2.22089e-05
8.18021e-06
3.0009e-06
1.09678e-06
3.9947e-07
1.45018e-07
5.24797e-08
1.89331e-08
6.80958e-09
2.44155e-09
8.72601e-10
3.10814e-10
1.10314e-10
3.90032e-11
1.37334e-11
4.81418e-12
1.67951e-12
5.82893e-13
2.01174e-13
6.90157e-14
2.35249e-14
7.96371e-15
2.67608e-15
8.92185e-16
2.94943e-16
9.66221e-17
3.13442e-17
1.00604e-17
3.19162e-18
9.99531e-19
3.0851e-19
9.36496e-20
2.78763e-20
8.10282e-21
2.2854e-21
6.19104e-22
1.5817e-22
3.43644e-23
1.04091
0.804682
0.410321
0.15572
0.0549183
0.0206274
0.00794655
0.00303326
0.00114867
0.000431989
0.000161474
6.00313e-05
2.22095e-05
8.18067e-06
3.00123e-06
1.09702e-06
3.99623e-07
1.45113e-07
5.25363e-08
1.89654e-08
6.8273e-09
2.45095e-09
8.77428e-10
3.13221e-10
1.11482e-10
3.95551e-11
1.39882e-11
4.92919e-12
1.73033e-12
6.04909e-13
2.10533e-13
7.29234e-14
2.51289e-14
8.61142e-15
2.93358e-15
9.93034e-16
3.33873e-16
1.11442e-16
3.69101e-17
1.21235e-17
3.9466e-18
1.27237e-18
4.05898e-19
1.2799e-19
3.98396e-20
1.22204e-20
3.68542e-21
1.08928e-21
3.14118e-22
8.31262e-23
1.04091
0.804682
0.410321
0.15572
0.0549183
0.0206274
0.00794655
0.00303326
0.00114867
0.00043199
0.000161475
6.00315e-05
2.22097e-05
8.18085e-06
3.00137e-06
1.09712e-06
3.99692e-07
1.45157e-07
5.25634e-08
1.89814e-08
6.83637e-09
2.45591e-09
8.80049e-10
3.14566e-10
1.12153e-10
3.98813e-11
1.41429e-11
5.00094e-12
1.76289e-12
6.19387e-13
2.16848e-13
7.56282e-14
2.62675e-14
9.0829e-15
3.12575e-15
1.07019e-15
3.64403e-16
1.23355e-16
4.14964e-17
1.38663e-17
4.60052e-18
1.51472e-18
4.94646e-19
1.60108e-19
5.13289e-20
1.62835e-20
5.10611e-21
1.58043e-21
4.82017e-22
1.37501e-22
1.04091
0.804682
0.410321
0.15572
0.0549183
0.0206274
0.00794655
0.00303326
0.00114867
0.00043199
0.000161475
6.00316e-05
2.22098e-05
8.18092e-06
3.00143e-06
1.09716e-06
3.99722e-07
1.45177e-07
5.25761e-08
1.89891e-08
6.84087e-09
2.45844e-09
8.81428e-10
3.15294e-10
1.12526e-10
4.00678e-11
1.42337e-11
5.04415e-12
1.783e-12
6.2856e-13
2.20949e-13
7.74286e-14
2.7044e-14
9.41223e-15
3.26322e-15
1.1267e-15
3.87295e-16
1.32499e-16
4.51e-17
1.5268e-17
5.13888e-18
1.71898e-18
5.71229e-19
1.8849e-19
6.17288e-20
2.00522e-20
6.45694e-21
2.05942e-21
6.5008e-22
1.93558e-22
1.04091
0.804682
0.410321
0.15572
0.0549183
0.0206274
0.00794655
0.00303326
0.00114867
0.00043199
0.000161475
6.00316e-05
2.22098e-05
8.18094e-06
3.00145e-06
1.09718e-06
3.99734e-07
1.45186e-07
5.25819e-08
1.89927e-08
6.84304e-09
2.4597e-09
8.82134e-10
3.15677e-10
1.12728e-10
4.01711e-11
1.42854e-11
5.06935e-12
1.79503e-12
6.34178e-13
2.23522e-13
7.8585e-14
2.75545e-14
9.63381e-15
3.35784e-15
1.16648e-15
4.0378e-16
1.39233e-16
4.78131e-17
1.63469e-17
5.56253e-18
1.88331e-18
6.34214e-19
2.12356e-19
7.06708e-20
2.33661e-20
7.67202e-21
2.50028e-21
8.08416e-22
2.47756e-22
1.04091
0.804682
0.410321
0.15572
0.0549183
0.0206274
0.00794655
0.00303326
0.00114867
0.00043199
0.000161475
6.00316e-05
2.22098e-05
8.18095e-06
3.00146e-06
1.09719e-06
3.9974e-07
1.4519e-07
5.25845e-08
1.89944e-08
6.84407e-09
2.46031e-09
8.82486e-10
3.15873e-10
1.12834e-10
4.02268e-11
1.43139e-11
5.08362e-12
1.802e-12
6.37512e-13
2.25085e-13
7.93036e-14
2.78791e-14
9.77783e-15
3.42072e-15
1.19351e-15
4.1522e-16
1.44007e-16
4.9778e-17
1.7145e-17
5.88258e-18
2.01008e-18
6.83835e-19
2.31555e-19
7.80167e-20
2.61463e-20
8.71314e-21
2.88614e-21
9.5e-22
2.97371e-22
1.04091
0.804682
0.410321
0.15572
0.0549183
0.0206274
0.00794655
0.00303326
0.00114867
0.00043199
0.000161475
6.00317e-05
2.22098e-05
8.18096e-06
3.00146e-06
1.09719e-06
3.99742e-07
1.45192e-07
5.25856e-08
1.89951e-08
6.84454e-09
2.4606e-09
8.82657e-10
3.1597e-10
1.12888e-10
4.02561e-11
1.43292e-11
5.09147e-12
1.80593e-12
6.39434e-13
2.26007e-13
7.97369e-14
2.8079e-14
9.86852e-15
3.46117e-15
1.21126e-15
4.22894e-16
1.47276e-16
5.11516e-17
1.77143e-17
6.11556e-18
2.10424e-18
7.21433e-19
2.46395e-19
8.38089e-20
2.83826e-20
9.56739e-21
3.20912e-21
1.07091e-21
3.4067e-22
1.04091
0.804682
0.410321
0.15572
0.0549183
0.0206274
0.00794655
0.00303326
0.00114867
0.00043199
0.000161475
6.00317e-05
2.22098e-05
8.18096e-06
3.00146e-06
1.09719e-06
3.99743e-07
1.45192e-07
5.25861e-08
1.89954e-08
6.84476e-09
2.46074e-09
8.82738e-10
3.16018e-10
1.12915e-10
4.0271e-11
1.43373e-11
5.09568e-12
1.80808e-12
6.40513e-13
2.26535e-13
7.99909e-14
2.81988e-14
9.92397e-15
3.48641e-15
1.22257e-15
4.27883e-16
1.49445e-16
5.20808e-17
1.81072e-17
6.27947e-18
2.17177e-18
7.48925e-19
2.57456e-19
8.82089e-20
3.01138e-20
1.02414e-20
3.46882e-21
1.16999e-21
3.76882e-22
1.04091
0.804682
0.410321
0.15572
0.0549183
0.0206274
0.00794655
0.00303326
0.00114867
0.00043199
0.000161475
6.00317e-05
2.22098e-05
8.18096e-06
3.00146e-06
1.09719e-06
3.99743e-07
1.45193e-07
5.25863e-08
1.89956e-08
6.84485e-09
2.4608e-09
8.82776e-10
3.16041e-10
1.12928e-10
4.02785e-11
1.43414e-11
5.09789e-12
1.80924e-12
6.41103e-13
2.26831e-13
8.01359e-14
2.82686e-14
9.95696e-15
3.50174e-15
1.22957e-15
4.31034e-16
1.50841e-16
5.26907e-17
1.83699e-17
6.3912e-18
2.21868e-18
7.68376e-19
2.65428e-19
9.14387e-20
3.14081e-20
1.07545e-20
3.67014e-21
1.2482e-21
4.06021e-22
1.04091
0.804682
0.410321
0.15572
0.0549183
0.0206274
0.00794655
0.00303326
0.00114867
0.00043199
0.000161475
6.00317e-05
2.22098e-05
8.18096e-06
3.00146e-06
1.09719e-06
3.99743e-07
1.45193e-07
5.25864e-08
1.89956e-08
6.84489e-09
2.46082e-09
8.82793e-10
3.16051e-10
1.12935e-10
4.02822e-11
1.43435e-11
5.09902e-12
1.80984e-12
6.41419e-13
2.26992e-13
8.02166e-14
2.83082e-14
9.97608e-15
3.5108e-15
1.2338e-15
4.3297e-16
1.51715e-16
5.30799e-17
1.85408e-17
6.46517e-18
2.2503e-18
7.81727e-19
2.70997e-19
9.37357e-20
3.23449e-20
1.11325e-20
3.82105e-21
1.30785e-21
4.28657e-22
1.04091
0.804682
0.410321
0.15572
0.0549183
0.0206274
0.00794655
0.00303326
0.00114867
0.00043199
0.000161475
6.00317e-05
2.22098e-05
8.18096e-06
3.00146e-06
1.09719e-06
3.99743e-07
1.45193e-07
5.25864e-08
1.89957e-08
6.84491e-09
2.46084e-09
8.82801e-10
3.16056e-10
1.12938e-10
4.02839e-11
1.43445e-11
5.09958e-12
1.81015e-12
6.41583e-13
2.27078e-13
8.02606e-14
2.83302e-14
9.98691e-15
3.51603e-15
1.23628e-15
4.3413e-16
1.52249e-16
5.33218e-17
1.86488e-17
6.51281e-18
2.27103e-18
7.90634e-19
2.74778e-19
9.53221e-20
3.3003e-20
1.14025e-20
3.9307e-21
1.35192e-21
4.45681e-22
1.04091
0.804682
0.410321
0.15572
0.0549183
0.0206274
0.00794655
0.00303326
0.00114867
0.00043199
0.000161475
6.00317e-05
2.22098e-05
8.18096e-06
3.00146e-06
1.09719e-06
3.99743e-07
1.45193e-07
5.25864e-08
1.89957e-08
6.84492e-09
2.46084e-09
8.82804e-10
3.16058e-10
1.12939e-10
4.02848e-11
1.4345e-11
5.09986e-12
1.8103e-12
6.41668e-13
2.27123e-13
8.0284e-14
2.83422e-14
9.9929e-15
3.51898e-15
1.2377e-15
4.34808e-16
1.52567e-16
5.34684e-17
1.87155e-17
6.54273e-18
2.28427e-18
7.96421e-19
2.77277e-19
9.63879e-20
3.34525e-20
1.159e-20
4.0081e-21
1.38354e-21
4.58104e-22
1.04091
0.804682
0.410321
0.15572
0.0549183
0.0206274
0.00794655
0.00303326
0.00114867
0.00043199
0.000161475
6.00317e-05
2.22098e-05
8.18096e-06
3.00146e-06
1.09719e-06
3.99743e-07
1.45193e-07
5.25864e-08
1.89957e-08
6.84492e-09
2.46084e-09
8.82806e-10
3.16059e-10
1.1294e-10
4.02851e-11
1.43452e-11
5.09999e-12
1.81038e-12
6.4171e-13
2.27146e-13
8.02962e-14
2.83486e-14
9.99615e-15
3.5206e-15
1.23851e-15
4.35196e-16
1.52752e-16
5.35553e-17
1.87557e-17
6.56106e-18
2.29252e-18
8.00089e-19
2.78886e-19
9.70858e-20
3.37517e-20
1.17168e-20
4.06127e-21
1.40561e-21
4.6692e-22
1.04091
0.804682
0.410321
0.15572
0.0549183
0.0206274
0.00794655
0.00303326
0.00114867
0.00043199
0.000161475
6.00317e-05
2.22098e-05
8.18096e-06
3.00146e-06
1.09719e-06
3.99743e-07
1.45193e-07
5.25864e-08
1.89957e-08
6.84492e-09
2.46084e-09
8.82806e-10
3.1606e-10
1.1294e-10
4.02853e-11
1.43453e-11
5.10006e-12
1.81042e-12
6.41731e-13
2.27158e-13
8.03025e-14
2.83519e-14
9.99787e-15
3.52148e-15
1.23895e-15
4.35414e-16
1.52857e-16
5.36056e-17
1.87794e-17
6.57205e-18
2.29755e-18
8.02359e-19
2.79899e-19
9.75319e-20
3.39459e-20
1.18005e-20
4.0969e-21
1.42063e-21
4.73013e-22
1.04091
0.804682
0.410321
0.15572
0.0549183
0.0206274
0.00794655
0.00303326
0.00114867
0.00043199
0.000161475
6.00317e-05
2.22098e-05
8.18096e-06
3.00146e-06
1.09719e-06
3.99743e-07
1.45193e-07
5.25864e-08
1.89957e-08
6.84492e-09
2.46084e-09
8.82807e-10
3.1606e-10
1.1294e-10
4.02854e-11
1.43453e-11
5.10009e-12
1.81044e-12
6.41741e-13
2.27163e-13
8.03056e-14
2.83536e-14
9.99877e-15
3.52195e-15
1.23918e-15
4.35533e-16
1.52916e-16
5.36342e-17
1.87931e-17
6.57849e-18
2.30055e-18
8.03734e-19
2.80521e-19
9.78106e-20
3.40692e-20
1.18544e-20
4.12019e-21
1.43059e-21
4.77121e-22
1.04091
0.804682
0.410321
0.15572
0.0549183
0.0206274
0.00794655
0.00303326
0.00114867
0.00043199
0.000161475
6.00317e-05
2.22098e-05
8.18096e-06
3.00146e-06
1.09719e-06
3.99743e-07
1.45193e-07
5.25864e-08
1.89957e-08
6.84492e-09
2.46084e-09
8.82807e-10
3.1606e-10
1.1294e-10
4.02854e-11
1.43454e-11
5.1001e-12
1.81044e-12
6.41746e-13
2.27166e-13
8.03072e-14
2.83544e-14
9.99923e-15
3.52219e-15
1.23931e-15
4.35597e-16
1.52948e-16
5.36501e-17
1.88008e-17
6.58219e-18
2.3023e-18
8.04549e-19
2.80896e-19
9.7981e-20
3.41457e-20
1.18883e-20
4.13509e-21
1.43706e-21
4.79828e-22
1.04091
0.804682
0.410321
0.15572
0.0549183
0.0206274
0.00794655
0.00303326
0.00114867
0.00043199
0.000161475
6.00317e-05
2.22098e-05
8.18096e-06
3.00146e-06
1.09719e-06
3.99743e-07
1.45193e-07
5.25864e-08
1.89957e-08
6.84492e-09
2.46085e-09
8.82807e-10
3.1606e-10
1.1294e-10
4.02854e-11
1.43454e-11
5.10011e-12
1.81045e-12
6.41748e-13
2.27167e-13
8.03079e-14
2.83548e-14
9.99946e-15
3.52232e-15
1.23938e-15
4.35631e-16
1.52965e-16
5.36588e-17
1.88051e-17
6.58428e-18
2.3033e-18
8.05022e-19
2.81118e-19
9.80831e-20
3.41922e-20
1.19092e-20
4.14441e-21
1.44117e-21
4.81573e-22
1.04091
0.804682
0.410321
0.15572
0.0549183
0.0206274
0.00794655
0.00303326
0.00114867
0.00043199
0.000161475
6.00317e-05
2.22098e-05
8.18096e-06
3.00146e-06
1.09719e-06
3.99743e-07
1.45193e-07
5.25864e-08
1.89957e-08
6.84492e-09
2.46085e-09
8.82807e-10
3.1606e-10
1.1294e-10
4.02854e-11
1.43454e-11
5.10011e-12
1.81045e-12
6.41749e-13
2.27168e-13
8.03083e-14
2.8355e-14
9.99957e-15
3.52238e-15
1.23941e-15
4.35649e-16
1.52974e-16
5.36634e-17
1.88074e-17
6.58543e-18
2.30386e-18
8.05293e-19
2.81246e-19
9.8143e-20
3.42199e-20
1.19219e-20
4.15013e-21
1.44372e-21
4.82673e-22
1.04091
0.804682
0.410321
0.15572
0.0549183
0.0206274
0.00794655
0.00303326
0.00114867
0.00043199
0.000161475
6.00317e-05
2.22098e-05
8.18096e-06
3.00146e-06
1.09719e-06
3.99743e-07
1.45193e-07
5.25864e-08
1.89957e-08
6.84492e-09
2.46085e-09
8.82807e-10
3.1606e-10
1.1294e-10
4.02854e-11
1.43454e-11
5.10011e-12
1.81045e-12
6.4175e-13
2.27168e-13
8.03084e-14
2.83551e-14
9.99963e-15
3.52241e-15
1.23943e-15
4.35658e-16
1.52979e-16
5.36659e-17
1.88087e-17
6.58606e-18
2.30417e-18
8.05444e-19
2.81319e-19
9.81776e-20
3.42361e-20
1.19294e-20
4.15357e-21
1.44528e-21
4.83355e-22
1.04091
0.804682
0.410321
0.15572
0.0549183
0.0206274
0.00794655
0.00303326
0.00114867
0.00043199
0.000161475
6.00317e-05
2.22098e-05
8.18096e-06
3.00146e-06
1.09719e-06
3.99743e-07
1.45193e-07
5.25864e-08
1.89957e-08
6.84492e-09
2.46085e-09
8.82807e-10
3.1606e-10
1.1294e-10
4.02854e-11
1.43454e-11
5.10011e-12
1.81045e-12
6.4175e-13
2.27169e-13
8.03085e-14
2.83552e-14
9.99965e-15
3.52242e-15
1.23943e-15
4.35662e-16
1.52982e-16
5.36671e-17
1.88093e-17
6.5864e-18
2.30434e-18
8.05527e-19
2.81359e-19
9.81972e-20
3.42454e-20
1.19338e-20
4.1556e-21
1.44621e-21
4.83768e-22
1.04091
0.804682
0.410321
0.15572
0.0549183
0.0206274
0.00794655
0.00303326
0.00114867
0.00043199
0.000161475
6.00317e-05
2.22098e-05
8.18096e-06
3.00146e-06
1.09719e-06
3.99743e-07
1.45193e-07
5.25864e-08
1.89957e-08
6.84492e-09
2.46085e-09
8.82807e-10
3.1606e-10
1.1294e-10
4.02854e-11
1.43454e-11
5.10011e-12
1.81045e-12
6.4175e-13
2.27169e-13
8.03086e-14
2.83552e-14
9.99967e-15
3.52243e-15
1.23944e-15
4.35665e-16
1.52983e-16
5.36678e-17
1.88097e-17
6.58657e-18
2.30443e-18
8.05572e-19
2.81382e-19
9.82081e-20
3.42507e-20
1.19363e-20
4.15678e-21
1.44676e-21
4.84015e-22
1.04091
0.804682
0.410321
0.15572
0.0549183
0.0206274
0.00794655
0.00303326
0.00114867
0.00043199
0.000161475
6.00317e-05
2.22098e-05
8.18096e-06
3.00146e-06
1.09719e-06
3.99743e-07
1.45193e-07
5.25864e-08
1.89957e-08
6.84492e-09
2.46085e-09
8.82807e-10
3.1606e-10
1.1294e-10
4.02854e-11
1.43454e-11
5.10011e-12
1.81045e-12
6.4175e-13
2.27169e-13
8.03086e-14
2.83552e-14
9.99967e-15
3.52244e-15
1.23944e-15
4.35666e-16
1.52983e-16
5.36681e-17
1.88098e-17
6.58667e-18
2.30448e-18
8.05596e-19
2.81394e-19
9.82141e-20
3.42536e-20
1.19377e-20
4.15745e-21
1.44708e-21
4.84159e-22
1.04091
0.804682
0.410321
0.15572
0.0549183
0.0206274
0.00794655
0.00303326
0.00114867
0.00043199
0.000161475
6.00317e-05
2.22098e-05
8.18096e-06
3.00146e-06
1.09719e-06
3.99743e-07
1.45193e-07
5.25864e-08
1.89957e-08
6.84492e-09
2.46085e-09
8.82807e-10
3.1606e-10
1.1294e-10
4.02854e-11
1.43454e-11
5.10011e-12
1.81045e-12
6.4175e-13
2.27169e-13
8.03086e-14
2.83552e-14
9.99968e-15
3.52244e-15
1.23944e-15
4.35666e-16
1.52984e-16
5.36683e-17
1.88099e-17
6.58671e-18
2.3045e-18
8.05609e-19
2.814e-19
9.82173e-20
3.42552e-20
1.19385e-20
4.15783e-21
1.44726e-21
4.84242e-22
1.04091
0.804682
0.410321
0.15572
0.0549183
0.0206274
0.00794655
0.00303326
0.00114867
0.00043199
0.000161475
6.00317e-05
2.22098e-05
8.18096e-06
3.00146e-06
1.09719e-06
3.99743e-07
1.45193e-07
5.25864e-08
1.89957e-08
6.84492e-09
2.46085e-09
8.82807e-10
3.1606e-10
1.1294e-10
4.02854e-11
1.43454e-11
5.10011e-12
1.81045e-12
6.4175e-13
2.27169e-13
8.03086e-14
2.83552e-14
9.99968e-15
3.52244e-15
1.23944e-15
4.35666e-16
1.52984e-16
5.36684e-17
1.881e-17
6.58674e-18
2.30451e-18
8.05616e-19
2.81403e-19
9.8219e-20
3.4256e-20
1.19389e-20
4.15804e-21
1.44736e-21
4.8429e-22
1.04091
0.804682
0.410321
0.15572
0.0549183
0.0206274
0.00794655
0.00303326
0.00114867
0.00043199
0.000161475
6.00317e-05
2.22098e-05
8.18096e-06
3.00146e-06
1.09719e-06
3.99743e-07
1.45193e-07
5.25864e-08
1.89957e-08
6.84492e-09
2.46085e-09
8.82807e-10
3.1606e-10
1.1294e-10
4.02854e-11
1.43454e-11
5.10011e-12
1.81045e-12
6.4175e-13
2.27169e-13
8.03086e-14
2.83552e-14
9.99968e-15
3.52244e-15
1.23944e-15
4.35667e-16
1.52984e-16
5.36684e-17
1.881e-17
6.58675e-18
2.30452e-18
8.05619e-19
2.81405e-19
9.82199e-20
3.42565e-20
1.19392e-20
4.15815e-21
1.44742e-21
4.84316e-22
1.04091
0.804682
0.410321
0.15572
0.0549183
0.0206274
0.00794655
0.00303326
0.00114867
0.00043199
0.000161475
6.00317e-05
2.22098e-05
8.18096e-06
3.00146e-06
1.09719e-06
3.99743e-07
1.45193e-07
5.25864e-08
1.89957e-08
6.84492e-09
2.46085e-09
8.82807e-10
3.1606e-10
1.1294e-10
4.02854e-11
1.43454e-11
5.10011e-12
1.81045e-12
6.4175e-13
2.27169e-13
8.03086e-14
2.83552e-14
9.99968e-15
3.52244e-15
1.23944e-15
4.35667e-16
1.52984e-16
5.36684e-17
1.881e-17
6.58675e-18
2.30452e-18
8.05621e-19
2.81406e-19
9.82204e-20
3.42567e-20
1.19393e-20
4.15821e-21
1.44745e-21
4.84331e-22
1.04091
0.804682
0.410321
0.15572
0.0549183
0.0206274
0.00794655
0.00303326
0.00114867
0.00043199
0.000161475
6.00317e-05
2.22098e-05
8.18096e-06
3.00146e-06
1.09719e-06
3.99743e-07
1.45193e-07
5.25864e-08
1.89957e-08
6.84492e-09
2.46085e-09
8.82807e-10
3.1606e-10
1.1294e-10
4.02854e-11
1.43454e-11
5.10011e-12
1.81045e-12
6.4175e-13
2.27169e-13
8.03086e-14
2.83552e-14
9.99968e-15
3.52244e-15
1.23944e-15
4.35667e-16
1.52984e-16
5.36684e-17
1.881e-17
6.58676e-18
2.30452e-18
8.05621e-19
2.81407e-19
9.82206e-20
3.42569e-20
1.19393e-20
4.15825e-21
1.44746e-21
4.84338e-22
1.04091
0.804682
0.410321
0.15572
0.0549183
0.0206274
0.00794655
0.00303326
0.00114867
0.00043199
0.000161475
6.00317e-05
2.22098e-05
8.18096e-06
3.00146e-06
1.09719e-06
3.99743e-07
1.45193e-07
5.25864e-08
1.89957e-08
6.84492e-09
2.46085e-09
8.82807e-10
3.1606e-10
1.1294e-10
4.02854e-11
1.43454e-11
5.10011e-12
1.81045e-12
6.4175e-13
2.27169e-13
8.03086e-14
2.83552e-14
9.99968e-15
3.52244e-15
1.23944e-15
4.35667e-16
1.52984e-16
5.36684e-17
1.881e-17
6.58676e-18
2.30452e-18
8.05622e-19
2.81407e-19
9.82207e-20
3.42569e-20
1.19394e-20
4.15826e-21
1.44747e-21
4.84343e-22
1.04091
0.804682
0.410321
0.15572
0.0549183
0.0206274
0.00794655
0.00303326
0.00114867
0.00043199
0.000161475
6.00317e-05
2.22098e-05
8.18096e-06
3.00146e-06
1.09719e-06
3.99743e-07
1.45193e-07
5.25864e-08
1.89957e-08
6.84492e-09
2.46085e-09
8.82807e-10
3.1606e-10
1.1294e-10
4.02854e-11
1.43454e-11
5.10011e-12
1.81045e-12
6.4175e-13
2.27169e-13
8.03086e-14
2.83552e-14
9.99968e-15
3.52244e-15
1.23944e-15
4.35667e-16
1.52984e-16
5.36684e-17
1.881e-17
6.58676e-18
2.30452e-18
8.05622e-19
2.81407e-19
9.82208e-20
3.4257e-20
1.19394e-20
4.15827e-21
1.44748e-21
4.84345e-22
)
;

boundaryField
{
    upperWall
    {
        type            zeroGradient;
    }
    outlet
    {
        type            zeroGradient;
    }
    inlet
    {
        type            fixedValue;