/*--------------------------------*- C++ -*----------------------------------*\
  =========                 |
  \\      /  F ield         | OpenFOAM: The Open Source CFD Toolbox
   \\    /   O peration     | Website:  https://openfoam.org
    \\  /    A nd           | Version:  7
     \\/     M anipulation  |
\*---------------------------------------------------------------------------*/
FoamFile
{
    version     2.0;
    format      ascii;
    class       volScalarField;
    location    "0.95";
    object      T;
}
// * * * * * * * * * * * * * * * * * * * * * * * * * * * * * * * * * * * * * //

dimensions      [0 0 0 1 0 0 0];

internalField   nonuniform List<scalar> 
23686
(
0.509941
0.910643
0.997281
0.975489
1.00718
1.01727
1.00286
1.00909
1.00026
1.00127
0.999751
0.999405
0.999891
0.999662
0.999995
0.99997
1.00001
1.00003
1.00001
1.00002
1
1
0.999999
0.999998
1
0.999999
1
1
1
1
1
1
1
1
1
1
1
1
1
1
1
1
1
1
1
1
1
1
1
1
1
1
1
1
1
1
1
1
1
1
1
1
1
1
1
1
1
1
1
1
1
1
1
1
1
1
1
1
1
1
1
1
1
1
1
1
1
1
1
1
1
1
1
1
1
1
1
1
1
1
1
1
1
1
1
1
1
1
1
1
1
1
1
1
1
1
1
1
1
1
1
1
1
1
1
1
1
1
1
1
1
1
1
1
1
1
1
1
1
1
1
1
1
1
1
1
1
1
1
1
1
1
1
1
1
1
1
1
1
1
1
1
1
1
1
1
1
1
1
1
1
1
1
1
1
1
1
1
1
1
1
1
1
1
1
1
1
1
1
1
1
1
1
1
1
1
1
1
1
0.11164
-0.00310636
-0.000317299
5.52315e-05
-1.03085e-05
1.75243e-07
1.75516e-07
-3.22223e-08
2.01359e-09
3.75098e-10
-1.68621e-10
1.44734e-11
1.36953e-12
-8.03056e-13
9.05056e-14
5.80328e-15
-3.42344e-15
4.66649e-16
-1.89948e-17
-1.49325e-17
3.77363e-18
-1.47989e-19
-6.44621e-20
2.05568e-20
-1.96928e-21
-3.09423e-22
1.08368e-22
-1.55372e-23
-5.92124e-25
4.97999e-25
-1.22971e-25
7.65527e-27
3.70168e-27
-1.86147e-27
3.3675e-28
7.91112e-29
-3.54742e-29
-7.36039e-30
1.83898e-30
8.84506e-31
-3.53517e-32
-4.68383e-32
-4.99585e-33
1.01299e-33
3.44221e-34
1.94557e-35
-5.4566e-36
-9.08956e-37
7.68572e-39
-1.20452e-54
5.81481e-38
-7.5671e-37
-7.34208e-36
-1.15337e-33
3.41136e-33
-9.18301e-33
-6.42811e-31
7.92245e-29
1.40014e-27
1.55816e-26
1.58539e-25
2.67489e-25
2.64965e-25
-6.56056e-23
-7.23868e-22
4.17957e-22
3.73223e-20
5.35731e-21
-2.52992e-18
1.16143e-17
2.91443e-16
9.80911e-16
5.37391e-15
-2.74992e-14
-1.69784e-13
4.10899e-13
-1.41129e-12
-1.33957e-11
1.81471e-11
-1.16351e-10
7.89119e-10
-6.51421e-10
1.88969e-09
-2.631e-08
9.10909e-08
-7.65699e-08
-2.07844e-07
1.61052e-07
1.3714e-06
7.05125e-07
-1.6271e-05
-4.14282e-05
0.000170675
0.00055196
-0.000599641
-0.00513874
-0.00839794
0.0168532
0.0757671
0.171995
1
1
1
1
1
1
1
1
1
1
1
1
1
1
1
1
1
1
1
1
1
1
1
1
1
1
1
1
1
1
1
1
1
1
1
1
1
1
1
1
1
1
1
1
1
1
1
1
1
1
1
1
1
1
1
1
1
1
1
1
1
1
1
1
1
1
1
1
1
1
1
1
1
1
1
1
1
1
1
1
1
1
1
1
1
1
1
1
1
1
1
1
1
1
1
1
1
1
1
1
1
1
1
1
1
1
1
1
1
1
1
1
1
1
0.999998
0.999998
0.999995
0.999996
0.999995
0.999997
1
1
1.00002
1.00001
1.00003
1.00002
1.00004
1.00003
1.00003
1.00003
0.999998
1.00001
0.999934
0.99996
0.999813
0.999858
0.999572
0.999653
0.999104
0.999252
0.998283
0.998539
0.996961
0.997349
0.994916
0.995492
0.991963
0.992858
0.987933
0.989185
0.982661
0.98428
0.975813
0.977939
0.966959
0.969666
0.956005
0.959255
0.942618
0.946687
0.926297
0.931222
0.907461
0.912914
0.8857
0.892038
0.86036
0.867718
0.832896
0.84115
0.802413
0.811806
0.770846
0.780755
0.737311
0.748089
0.701634
0.712875
0.663863
0.674994
0.623461
0.634957
0.580081
0.591175
0.532556
0.542541
0.481771
0.491348
0.428044
0.43794
0.369164
0.379074
0.312427
0.319662
0.246926
0.180816
0.250982
4.58865e-38
0.121596
0.0139069
-0.00200416
0.000101508
-3.29739e-06
-3.45346e-06
5.32192e-07
-1.86721e-08
-8.67423e-09
1.98581e-09
-2.29594e-10
-3.01286e-11
1.01881e-11
-1.26524e-12
-1.00732e-13
5.22206e-14
-6.12953e-15
-2.58927e-16
1.91467e-16
-4.45201e-17
2.07171e-18
1.20551e-18
-2.50005e-19
1.96974e-20
4.66856e-21
-1.63071e-21
1.55572e-22
1.35733e-23
-8.70582e-24
1.23431e-24
-4.87557e-26
-4.23151e-26
1.26845e-26
-1.76223e-27
-4.01794e-28
3.01141e-28
-2.86635e-29
-1.97636e-29
-6.36442e-31
1.78392e-30
2.18744e-31
-7.0642e-32
-2.03155e-32
2.33591e-34
7.11534e-34
1.14972e-34
-4.84441e-36
-2.70742e-36
-2.03938e-37
-0.00133342
4.99337e-38
0.130985
-3.75582e-37
1.37183e-36
3.23942e-34
-4.95233e-34
5.96837e-33
2.36224e-31
-9.33163e-30
-3.87309e-28
-4.40169e-27
-6.17416e-26
-2.19545e-25
-8.77358e-25
1.17069e-23
2.6579e-22
1.07284e-21
-9.88823e-21
-7.23517e-20
5.86877e-19
4.18578e-18
-9.12466e-17
-5.81341e-16
-2.29992e-15
-3.17012e-15
1.00605e-13
9.52204e-14
-8.84247e-13
8.94247e-12
-1.68135e-12
3.9945e-11
-1.66243e-10
-8.41094e-10
1.65382e-09
1.90009e-09
-7.43548e-09
1.13142e-08
-7.18755e-09
-4.72865e-07
1.81446e-06
1.19541e-06
-3.51698e-06
-4.27128e-05
2.46011e-05
0.000421704
0.000378795
-0.00252658
-0.00863894
0.000604466
0.0488353
0.000148593
0.0642368
-2.77272e-05
0.453368
0.000140418
1.57756e-06
-1.07378e-05
1.40764e-06
-1.25929e-08
-2.71604e-08
5.36429e-09
-5.3326e-10
-1.0663e-10
2.86304e-11
-3.09298e-12
-3.83719e-13
1.51936e-13
-1.55512e-14
-1.30251e-15
5.4571e-16
-1.17125e-16
3.48223e-18
3.73187e-18
-6.75573e-19
4.37406e-20
1.49768e-20
-4.56784e-21
3.61078e-22
4.9664e-23
-2.47135e-23
3.04992e-24
-5.82641e-26
-1.17219e-25
3.34214e-26
-4.73463e-27
-9.27797e-28
9.04265e-28
-1.00398e-28
-7.1211e-29
-8.69134e-31
5.98049e-30
7.56513e-31
-2.30348e-31
-6.98646e-32
3.33742e-34
2.34205e-33
4.06096e-34
-1.21918e-35
-9.24492e-36
-7.94607e-37
9.06714e-38
7.56045e-37
2.41685e-34
-8.89781e-34
2.91892e-33
9.21875e-32
-6.49387e-30
-2.42335e-28
-3.05056e-27
-4.3486e-26
-9.24756e-26
-7.7271e-26
1.05121e-23
1.59033e-22
4.28592e-22
-6.24199e-21
-2.67616e-20
4.87546e-19
2.62169e-18
-6.34416e-17
-3.12907e-16
-9.54579e-16
9.04889e-17
6.91662e-14
-8.43885e-16
-8.06137e-13
6.27964e-12
-8.2669e-13
2.98813e-11
-1.47537e-10
-4.61149e-10
1.37407e-09
-4.93602e-10
-2.23172e-09
1.72707e-08
-3.54681e-08
-4.0003e-07
1.62385e-06
1.24324e-06
-4.39873e-06
-4.19391e-05
3.22749e-05
0.000427611
0.000320365
-0.00276734
-0.00856841
0.00221587
0.0514473
-3.13836e-37
-1.13217e-07
5.32847e-07
-8.58979e-08
3.92802e-09
1.22829e-09
-4.57859e-10
3.2832e-11
4.88649e-12
-2.1794e-12
2.26184e-13
2.23011e-14
-9.29589e-15
1.0914e-15
-2.83738e-17
-4.48133e-17
9.80782e-18
-2.24133e-19
-2.01433e-19
5.35228e-20
-4.02005e-21
-1.03496e-21
3.02171e-22
-3.49587e-23
-2.87202e-24
1.44295e-24
-2.98594e-25
1.79897e-26
9.06199e-27
-4.85714e-27
9.91133e-28
2.32404e-28
-1.32421e-28
-2.44565e-29
6.8885e-30
3.01882e-30
-9.64594e-32
-1.50464e-31
-1.81559e-32
3.36612e-33
1.1137e-33
7.87278e-35
-1.81131e-35
-3.30106e-36
-5.03776e-38
6.79992e-37
-8.6503e-34
4.11189e-33
1.19175e-32
-3.93301e-31
5.52377e-29
9.44339e-28
1.11906e-26
1.06894e-25
-2.01783e-26
-1.04949e-24
-4.47421e-23
-4.14058e-22
6.39817e-22
2.04181e-20
-5.08248e-20
-1.79488e-18
9.08484e-18
1.83887e-16
4.49687e-16
2.63127e-15
-2.15005e-14
-9.71743e-14
4.1178e-13
-8.69033e-13
-9.73849e-12
1.22045e-11
-7.99128e-11
5.68883e-10
-7.72643e-10
2.25407e-09
-2.15894e-08
7.41557e-08
-5.82244e-08
-2.18279e-07
2.11075e-07
1.49723e-06
5.26912e-07
-1.83573e-05
-3.75299e-05
0.000186618
0.000550349
-0.000730286
-0.00549269
-0.00762234
0.0209522
0.0802744
-0.00528114
-0.00556021
-4.20266e-37
0.594883
-0.00160947
0.942444
1.00339
0.979133
1.00791
1.01325
1.00265
1.00761
0.999944
1.00096
0.999656
0.999356
0.999885
0.999649
1
0.999959
1.00002
1.00003
1.00001
1.00002
1
1
0.999999
0.999998
1
0.999999
1
1
1
1
1
1
1
1
1
1
1
1
1
1
1
1
1
1
1
1
1
1
1
1
1
1
1
1
1
1
1
1
1
1
1
1
1
1
1
1
1
1
1
1
1
1
1
1
1
1
1
1
1
1
1
1
1
1
1
1
1
1
1
1
1
1
1
1
1
1
1
1
1
1
1
1
1
1
1
1
1
1
1
1
1
1
1
1
1
1
1
1
1
1
1
1
1
1
1
1
1
1
1
1
1
1
1
1
1
1
1
1
1
1
1
1
1
1
1
1
1
1
1
1
1
1
1
1
1
1
1
1
1
1
1
1
1
1
1
1
1
1
1
1
1
1
1
1
1
1
1
1
1
1
1
1
1
1
1
1
1
1
1
1
1
1
1
1
1
-1.60299e-37
0.00261077
0.000236229
0.235597
-1.05639e-05
-3.43467e-06
7.57138e-07
-5.52954e-08
-7.56084e-09
3.24048e-09
-3.78286e-10
-2.40992e-11
1.56869e-11
-2.161e-12
-8.04911e-14
7.115e-14
-1.06668e-14
4.16072e-16
2.82508e-16
-7.5039e-17
4.60027e-18
1.38884e-18
-4.09779e-19
4.29415e-20
4.87776e-21
-2.29924e-21
3.07687e-22
7.05784e-24
-1.11435e-23
2.31342e-24
-1.97278e-25
-4.23039e-26
2.81243e-26
-5.86446e-27
-7.3606e-28
8.10052e-28
-1.61331e-29
-6.30718e-29
-7.3845e-30
3.18458e-30
7.34099e-31
-4.57461e-32
-3.4601e-32
-3.29924e-33
6.49918e-34
1.85862e-34
7.62765e-36
-3.36654e-36
-6.47847e-37
2.29605e-35
-0.00445074
-0.00527208
-0.00421271
3.071e-39
0.163289
0.216625
-1.31586e-05
-1.12008e-05
0.517419
-1.29154e-33
6.24479e-33
2.17976e-32
-1.02264e-30
5.07038e-29
1.06633e-27
1.16572e-26
1.49524e-25
3.24938e-26
-1.11913e-25
-4.49954e-23
-5.73429e-22
-1.45581e-22
2.67765e-20
1.03406e-21
-2.20859e-18
3.83261e-18
2.40317e-16
7.55594e-16
4.43107e-15
-1.93876e-14
-1.67937e-13
3.85359e-13
-1.73063e-13
-1.68599e-11
1.97915e-11
-1.38487e-10
7.58238e-10
-4.07185e-10
2.127e-09
-2.98994e-08
1.05814e-07
-8.69015e-08
-3.42636e-07
6.92703e-07
1.37279e-06
-4.08022e-07
-2.88333e-05
-2.67645e-05
0.000299323
0.00059777
-0.00152786
-0.00754046
-0.00595161
0.0375863
0.0979273
0.14223
0.0528654
0.185682
0.025489
7.61732e-05
0.000473589
6.62957e-05
7.89362e-06
1
1
1
1
1
1
1
1
1
1
1
1
1
1
1
1
1
1
1
1
1
1
1
1
1
1
1
1
1
1
1
1
1
1
1
1
1
1
1
1
1
1
1
1
1
1
1
1
1
1
1
1
1
1
1
1
1
1
1
1
1
1
1
1
1
1
1
1
1
1
1
1
1
1
1
1
1
1
1
1
1
1
1
1
1
1
1
1
1
1
1
1
1
1
1
1
1
1
1
1
1
1
1
1
1
1
1
1
1
1
0.999999
1
0.999997
0.999998
0.999996
0.999996
0.999998
0.999997
1.00001
1
1.00002
1.00001
1.00003
1.00002
1.00003
1.00003
1.00002
1.00002
0.999992
1.00001
0.999938
0.99998
0.999822
0.999907
0.999572
0.999725
0.999087
0.999364
0.998244
0.998693
0.996872
0.997578
0.994735
0.995768
0.991838
0.993252
0.987903
0.98988
0.982593
0.985142
0.975753
0.978973
0.966915
0.971052
0.955753
0.960833
0.94241
0.948311
0.926377
0.933701
0.90703
0.915493
0.884968
0.894241
0.860002
0.870693
0.832926
0.844253
0.803578
0.816429
0.772349
0.785885
0.739591
0.75409
0.703897
0.719393
0.664377
0.680547
0.622583
0.638727
0.577379
0.594889
0.523672
0.541552
0.46814
0.484602
0.413794
0.428943
0.357145
0.376532
0.759785
-4.29433e-37
-0.000422185
0.806072
-5.22374e-37
0.000213928
2.67602e-36
-4.04202e-37
6.51626e-07
1.63027e-07
-4.58153e-08
4.84777e-09
4.09135e-10
-2.17895e-10
2.77077e-11
1.32196e-12
-1.08696e-12
1.45737e-13
3.00488e-15
-4.18004e-15
9.0602e-16
-5.1418e-17
-2.18135e-17
5.59781e-18
-4.31876e-19
-8.34574e-20
3.24793e-20
-3.71496e-21
-2.58729e-22
1.68807e-22
-2.70179e-23
7.54668e-25
6.89717e-25
-2.14485e-25
3.28378e-26
4.64943e-27
-4.50714e-27
9.10848e-28
2.68914e-28
-8.44768e-29
-2.90006e-29
1.63118e-30
1.95126e-30
1.33064e-31
-6.17208e-32
-1.32068e-32
9.21132e-35
4.3441e-34
5.4695e-35
-3.30908e-36
-1.64089e-36
1.76635e-35
-2.0881e-07
2.03782e-34
-2.41415e-34
4.65294e-33
2.57088e-32
-3.55184e-30
-2.23329e-28
-3.37656e-27
-4.76368e-26
-1.81446e-25
-2.25481e-25
9.65386e-24
1.81179e-22
8.70968e-22
-5.62405e-21
-5.48294e-20
3.97256e-19
5.08387e-18
-6.72217e-17
-4.88412e-16
-1.39601e-15
-4.729e-15
9.45328e-14
1.27779e-13
-1.26053e-12
7.60289e-12
6.33136e-12
1.97079e-11
-8.00966e-11
-1.03974e-09
2.27986e-09
-3.85187e-09
1.76025e-08
-2.45564e-08
-4.19162e-08
-4.12959e-07
2.27079e-06
1.1557e-06
-8.71701e-06
-5.47883e-05
8.79567e-05
0.000573666
8.36569e-05
-0.00425903
-0.0101913
0.0105401
0.0802251
1.61869e-06
-3.69776e-12
8.29484e-37
3.80224e-11
0.294707
-2.75324e-05
-1.26064e-10
0.035379
-0.00716889
-0.00727751
-0.00121826
0.000640353
0.00026872
-3.68236e-05
-2.62322e-05
3.25605e-07
1.63548e-06
4.73084e-07
-3.18026e-07
-7.23778e-08
9.62296e-08
-2.80534e-08
2.8057e-09
-8.46655e-10
7.14585e-10
-1.11528e-10
1.4552e-11
-1.37358e-11
-5.97867e-13
5.17953e-13
-1.23824e-13
-2.68342e-14
3.02755e-15
4.756e-16
2.17956e-16
8.54551e-18
-2.23013e-18
-7.28065e-20
2.43039e-20
7.95971e-22
-4.55014e-22
-4.86569e-23
-1.59578e-24
-1.18629e-25
1.3411e-25
1.16167e-26
9.97153e-28
5.34313e-29
-7.14202e-31
2.80086e-32
-2.06327e-36
-7.84886e-36
3.52603e-35
5.28387e-34
1.3031e-33
-1.16026e-32
-9.35881e-32
-5.62682e-32
2.1639e-30
7.0332e-30
-2.41025e-29
-1.63366e-28
3.67905e-29
2.04031e-27
-2.56883e-27
-9.91205e-27
6.12142e-26
-1.42948e-25
-1.08724e-25
4.35866e-24
-3.02921e-23
7.73758e-23
4.41929e-22
-5.66392e-21
2.15436e-20
4.90827e-20
-9.16878e-19
4.62143e-18
1.50366e-20
-1.53548e-16
8.68351e-16
-6.22017e-16
-1.79555e-14
1.8342e-13
-5.72659e-13
0.0804081
0.00786814
-0.0102646
-0.00385743
0.000234324
0.000553732
6.41879e-05
-5.4186e-05
-6.8733e-06
1.47134e-06
2.08729e-06
-4.5697e-07
-4.65499e-08
2.36713e-09
6.98221e-09
-2.56032e-09
2.06054e-09
-6.9427e-10
-1.61551e-10
3.2246e-11
1.9196e-12
7.4191e-12
-1.17853e-12
2.26115e-14
8.69575e-14
-3.65888e-16
-9.84448e-16
-3.77516e-16
-7.19721e-17
3.8031e-18
5.36614e-19
-3.08077e-20
-6.7848e-21
4.71832e-22
1.76698e-22
1.30174e-23
9.88906e-26
-1.05982e-25
-4.92217e-26
-3.27847e-27
-2.41095e-28
2.51496e-34
-4.70513e-36
-3.78828e-36
1.76604e-34
1.1078e-33
-1.19766e-33
-3.93606e-32
-1.40303e-31
5.35704e-31
5.08848e-30
7.79564e-31
-8.20661e-29
-1.88636e-28
8.23813e-28
1.70273e-27
-1.05066e-26
1.5733e-26
4.69378e-26
-4.4968e-25
2.04879e-24
-2.86415e-24
-4.49828e-23
4.23871e-22
-1.32836e-21
-4.8533e-21
7.65553e-20
-2.99063e-19
-2.87437e-19
1.18167e-17
-6.81329e-17
8.11621e-18
1.81333e-15
-1.13034e-14
3.26878e-14
2.27851e-13
-2.81782e-12
8.26066e-12
4.07321e-11
-5.316e-10
1.9919e-09
6.03971e-09
-1.04476e-07
5.89488e-07
7.83204e-09
-3.02927e-08
-3.21944e-08
-5.64741e-10
6.33872e-33
-1.16934e-33
-1.11898e-33
4.7569e-33
5.43075e-32
-5.94727e-30
0.000277452
0.982244
1.00991
1.00371
1.00638
1.01397
1.00125
1.00491
0.999712
1.00021
0.999713
0.999455
0.999923
0.999743
1.00001
0.999978
1.00002
1.00003
1
1.00001
0.999999
1
0.999999
0.999998
1
0.999999
1
1
1
1
1
1
1
1
1
1
1
1
1
1
1
1
1
1
1
1
1
1
1
1
1
1
1
1
1
1
1
1
1
1
1
1
1
1
1
1
1
1
1
1
1
1
1
1
1
1
1
1
1
1
1
1
1
1
1
1
1
1
1
1
1
1
1
1
1
1
1
1
1
1
1
1
1
1
1
1
1
1
1
1
1
1
1
1
1
1
1
1
1
1
1
1
1
1
1
1
1
1
1
1
1
1
1
1
1
1
1
1
1
1
1
1
1
1
1
1
1
1
1
1
1
1
1
1
1
1
1
1
1
1
1
1
1
1
1
1
1
1
1
1
1
1
1
1
1
1
1
1
1
1
1
1
1
1
1
1
1
1
1
1
1
-1.84094e-30
-1.11632e-05
3.27835e-13
-2.26426e-34
0.319292
1.42477e-11
-3.23756e-09
2.78352e-09
1.07784e-06
6.55844e-08
-4.30315e-08
-2.53936e-08
5.86964e-09
8.24713e-09
7.47404e-09
0.0569472
0.246932
-1.9338e-10
-8.49958e-11
4.25566e-36
3.38049e-11
3.91351e-11
0.114665
-2.28108e-12
4.52074e-14
5.51271e-14
-1.30451e-14
9.19244e-16
2.33702e-16
-7.67692e-17
7.85787e-18
8.17829e-19
-4.36049e-19
5.52473e-20
1.7216e-21
-2.11909e-21
3.76445e-22
-1.66677e-23
-8.54543e-24
2.6072e-24
-4.23641e-25
-1.48958e-26
4.00908e-26
-1.05893e-26
-1.34871e-27
1.35819e-27
1.10974e-28
-8.29037e-29
-1.66097e-29
3.01405e-30
1.07147e-30
1.70618e-32
-3.58529e-32
-5.81098e-33
2.06236e-34
1.65102e-34
1.99631e-35
-1.66997e-05
-2.49828e-05
-1.11083e-31
6.08396e-33
-1.54606e-33
-1.32474e-33
3.43681e-32
-6.63257e-32
-1.02177e-30
-8.5981e-31
-4.59612e-30
1.2801e-34
-1.41901e-33
-1.98169e-28
-3.35809e-27
-4.77423e-26
-1.76304e-25
2.38503e-25
1.23242e-23
1.71657e-22
7.07082e-22
-5.28989e-21
-4.19229e-20
4.53018e-19
5.87669e-18
-6.55507e-17
-4.88047e-16
-1.04446e-15
-4.4665e-15
9.48133e-14
1.47168e-13
-1.65679e-12
7.49329e-12
1.34429e-11
1.38487e-11
-5.21811e-11
-1.27572e-09
3.03389e-09
-8.27334e-09
3.79855e-08
-5.88882e-08
-7.15329e-08
-3.37715e-07
2.64327e-06
1.31079e-06
-1.35913e-05
-6.2117e-05
0.000145855
0.000694706
-0.00022519
-0.00567391
-0.0111782
0.0198344
0.0501616
-1.62993e-06
-7.78345e-06
1.07711e-06
1
1
1
1
1
1
1
1
1
1
1
1
1
1
1
1
1
1
1
1
1
1
1
1
1
1
1
1
1
1
1
1
1
1
1
1
1
1
1
1
1
1
1
1
1
1
1
1
1
1
1
1
1
1
1
1
1
1
1
1
1
1
1
1
1
1
1
1
1
1
1
1
1
1
1
1
1
1
1
1
1
1
1
1
1
1
1
1
1
1
1
1
1
1
1
1
1
1
1
1
1
1
1
1
1
1
1
1
0.999999
1
0.999997
0.999998
0.999996
0.999997
0.999999
0.999998
1.00001
1
1.00002
1.00001
1.00002
1.00002
1.00002
1.00002
1.00001
1.00002
0.999999
1.00002
0.999959
0.999997
0.999863
0.99994
0.999634
0.999789
0.999185
0.999454
0.9984
0.998837
0.997088
0.99778
0.995081
0.996104
0.992389
0.993708
0.988729
0.990615
0.983741
0.986214
0.977193
0.980397
0.968668
0.972714
0.957958
0.96296
0.945071
0.950996
0.929536
0.936651
0.910791
0.919134
0.888845
0.898201
0.864288
0.874815
0.838051
0.849108
0.809891
0.822388
0.779962
0.793231
0.747798
0.761692
0.712012
0.727366
0.671765
0.688026
0.628753
0.645864
0.58143
0.599358
0.523982
0.542969
0.464069
0.481909
0.404124
0.418603
3.09839e-05
-1.13942e-05
0.171216
-0.00459306
-4.40635e-10
-5.18254e-10
-0.000867393
7.78045e-05
0.229031
2.31922e-38
0.572277
1.82946e-36
4.37192e-32
0.872928
0.308952
1.42844e-09
9.19173e-11
6.45133e-07
-8.21647e-08
9.39432e-33
1.50348e-06
5.74375e-11
0.158236
-1.28837e-14
-8.77943e-13
1.70705e-13
-8.67778e-15
-3.56019e-15
9.99664e-16
-9.07201e-17
-1.42513e-17
5.75177e-18
-6.9314e-19
-5.03069e-20
2.9311e-20
-4.61389e-21
-1.99849e-24
1.39978e-22
-3.22769e-23
2.90026e-24
3.54963e-25
-2.62153e-25
6.73416e-26
2.17822e-27
-7.23349e-27
1.41447e-27
6.21868e-28
-7.37968e-29
-4.7342e-29
-8.64415e-31
2.36448e-30
3.07436e-31
-4.37456e-32
-1.73645e-32
-1.09014e-33
3.04316e-34
6.75242e-35
6.53328e-12
3.90015e-35
0.105339
0.0179633
-0.003371
6.99832e-33
9.26271e-33
-2.1939e-37
0.921152
8.11053e-28
8.53833e-28
4.21446e-29
-2.97977e-27
4.80733e-29
9.82532e-27
1.60586e-25
-1.56274e-25
-1.3912e-24
-4.25759e-23
-5.07208e-22
1.3051e-22
2.46309e-20
-3.18188e-20
-2.363e-18
1.33637e-18
2.42071e-16
6.24799e-16
3.71204e-15
-2.08269e-14
-1.85567e-13
4.24788e-13
6.79603e-13
-2.03663e-11
1.66386e-11
-1.56639e-10
8.00893e-10
-2.70841e-10
2.0262e-09
-3.17057e-08
1.13379e-07
-8.64757e-08
-4.65813e-07
1.15977e-06
1.31426e-06
-1.38232e-06
-3.92598e-05
-8.89234e-06
0.000409395
0.00059565
-0.0023867
-0.00935565
-0.00303823
0.000195338
9.4382e-27
0.348042
0.0738136
0.000138865
0.0149306
-0.0116622
-0.00523537
6.43145e-07
0.000685712
0.000112487
-6.37071e-05
-1.09191e-05
1.71464e-06
2.52535e-06
-4.31976e-07
-7.02356e-08
-2.3387e-08
2.39797e-08
-6.60146e-09
2.8692e-09
-9.33564e-10
-1.38886e-10
3.30683e-11
7.18026e-12
7.7119e-12
-1.57687e-12
3.48608e-14
9.35077e-14
-2.70303e-16
-7.36713e-16
-3.85307e-16
-7.30912e-17
4.7428e-18
6.56732e-19
-2.24047e-20
-6.86617e-21
6.57969e-35
4.34847e-34
-1.47412e-34
-1.78246e-32
-7.92902e-32
1.72445e-31
2.96282e-30
4.9139e-30
-5.01176e-29
-1.86006e-28
4.65034e-28
3.18969e-27
-5.26847e-27
-1.99757e-26
9.32318e-26
-1.20518e-25
-5.81026e-25
5.56694e-24
-2.8604e-23
3.5498e-23
6.36317e-22
-5.65366e-21
1.64631e-20
7.27427e-20
-1.05875e-18
3.94984e-18
6.7697e-18
-1.71093e-16
8.42107e-16
-3.14839e-18
-2.72054e-14
-1.09124e-07
-6.80647e-10
-0.00530204
-0.00907158
-0.00202283
0.000675002
0.00037294
-2.55501e-05
-3.64536e-05
-2.32514e-07
1.69125e-06
8.81471e-07
-4.35528e-07
-7.81528e-08
1.09108e-07
-3.13629e-08
2.9191e-09
-8.30474e-10
8.15611e-10
-1.34697e-10
1.40744e-11
-1.68243e-11
5.32553e-14
5.70901e-13
-1.47671e-13
-2.83691e-14
2.59488e-15
3.50517e-16
2.25478e-16
6.81275e-18
-2.36789e-18
-1.00102e-19
2.16228e-20
-0.00678227
-0.0031757
-0.00995505
1.15668e-21
-4.07916e-22
-4.86667e-23
-2.73332e-24
-2.92286e-25
1.40804e-25
1.83651e-34
6.07777e-34
-4.57212e-33
-4.66096e-32
-6.90157e-32
1.02028e-30
5.65236e-30
-8.82464e-30
-1.1894e-28
-9.53927e-29
1.75438e-27
2.2214e-27
-1.76183e-26
1.78226e-26
1.08078e-25
-6.06181e-25
1.6554e-24
9.08052e-25
-6.08084e-23
3.97171e-22
-9.58991e-22
-6.95202e-21
7.39063e-20
-2.84111e-19
-7.81889e-19
1.30708e-17
-5.81429e-17
-4.3714e-17
2.08497e-15
-1.163e-14
7.87484e-15
2.89892e-13
-2.47506e-12
2.0251e-36
0.64697
3.80408e-35
3.93953e-07
-1.16855e-07
1.79461e-36
1.64759e-13
-3.2655e-13
-3.84306e-12
1.4175e-35
1.94157e-34
2.93272e-22
1.74909e-22
1.50459e-23
4.81751e-25
-2.01558e-28
-9.33811e-26
-4.87472e-26
0.00045649
-8.04472e-08
0.0307192
4.48591e-22
1.00293
1.00828
1.01211
1.00307
1.00796
1.00022
1.00185
0.999626
0.999683
0.999808
0.999572
0.999981
0.999882
1.00002
1.00002
1.00001
1.00003
1
1.00001
0.999999
0.999999
0.999999
0.999998
1
0.999999
1
1
1
1
1
1
1
1
1
1
1
1
1
1
1
1
1
1
1
1
1
1
1
1
1
1
1
1
1
1
1
1
1
1
1
1
1
1
1
1
1
1
1
1
1
1
1
1
1
1
1
1
1
1
1
1
1
1
1
1
1
1
1
1
1
1
1
1
1
1
1
1
1
1
1
1
1
1
1
1
1
1
1
1
1
1
1
1
1
1
1
1
1
1
1
1
1
1
1
1
1
1
1
1
1
1
1
1
1
1
1
1
1
1
1
1
1
1
1
1
1
1
1
1
1
1
1
1
1
1
1
1
1
1
1
1
1
1
1
1
1
1
1
1
1
1
1
1
1
1
1
1
1
1
1
1
1
1
1
0.69948
1
6.13229e-36
0.113514
4.97449e-35
0.265452
0.228572
5.73605e-09
-1.50644e-10
5.09911e-07
-2.28502e-08
3.01246e-32
-4.40342e-10
-4.58045e-10
1.22949e-06
1.81553e-06
1.39007e-06
7.86548e-35
9.17738e-12
-2.12957e-12
3.98611e-09
2.7054e-07
-1.14256e-07
1.76609e-13
-1.49882e-14
-2.0572e-15
8.95251e-16
-1.10752e-16
-5.92395e-18
4.90227e-18
-7.54179e-19
1.68351e-21
2.33696e-20
-4.72669e-21
2.89894e-22
9.4691e-23
-2.98601e-23
4.67457e-24
-1.13663e-25
-2.83257e-25
9.76624e-26
-1.21452e-27
-1.10204e-26
1.2097e-27
9.5701e-28
-2.43596e-29
-5.93274e-29
-6.43208e-30
2.12197e-30
4.99111e-31
9.57107e-34
-1.55642e-32
-1.78193e-33
3.05879e-11
3.00202e-11
0.141483
-0.00734108
-1.74024e-33
-1.81606e-25
0.198704
3.69999e-29
-2.7256e-27
-0.000126951
1.03922e-34
-4.40556e-26
1.63755e-25
1.36634e-25
-7.88868e-26
7.40634e-25
1.48531e-23
1.63321e-22
-4.42874e-22
-3.50342e-22
-1.99612e-24
1.13536e-34
1.30833e-34
-5.45967e-21
-3.48023e-20
6.28708e-19
6.81283e-18
-6.26687e-17
-4.95571e-16
-6.66131e-16
-3.93295e-15
1.01526e-13
1.64717e-13
-2.0812e-12
6.97087e-12
2.20201e-11
1.52689e-11
-4.67715e-12
-1.53372e-09
3.93131e-09
-1.39348e-08
6.16159e-08
-9.71338e-08
-1.23306e-07
-1.69452e-07
3.01323e-06
1.50778e-06
-2.02335e-05
-6.71417e-05
0.000220439
0.000819794
-0.000686852
-0.00745164
-0.0116102
7.12201e-33
3.95452e-32
7.11159e-27
6.71584e-27
-4.02828e-26
1
0.463776
1
1
1
1
1
1
1
1
1
1
1
1
1
1
1
1
1
1
1
1
1
1
1
1
1
1
1
1
1
1
1
1
1
1
1
1
1
1
1
1
1
1
1
1
1
1
1
1
1
1
1
1
1
1
1
1
1
1
1
1
1
1
1
1
1
1
1
1
1
1
1
1
1
1
1
1
1
1
1
1
1
1
1
1
1
1
1
1
1
1
1
1
1
1
1
1
1
1
1
1
1
1
1
1
0.999999
1
0.999998
0.999998
0.999997
0.999997
1
0.999998
1.00001
1
1.00001
1.00001
1.00002
1.00001
1.00002
1.00002
1.00002
1.00002
1.00001
1.00002
0.999983
1.00001
0.999905
0.999973
0.999705
0.999849
0.999299
0.999549
0.998572
0.998987
0.997328
0.998008
0.995505
0.996464
0.993011
0.994329
0.989616
0.991426
0.984975
0.987338
0.978742
0.981911
0.970552
0.97449
0.960401
0.965304
0.947944
0.953905
0.932727
0.939802
0.914655
0.922703
0.892924
0.902702
0.869071
0.879453
0.843833
0.855228
0.816599
0.829293
0.787855
0.801071
0.756013
0.770881
0.7192
0.73523
0.679038
0.695703
0.635569
0.653474
0.585042
0.603893
0.523425
0.542995
0.460365
0.481264
0.391547
0.411688
0.000126296
0.000292128
0.000347145
0.000322973
0.756643
7.64658e-22
-6.94743e-21
1.31682e-32
1.01296e-32
-1.85901e-10
-7.56028e-10
0.0753817
0.0665378
0.131353
0.00115474
0.0248537
2.48431e-35
1.30239e-32
6.4732e-28
-1.89472e-27
1.39299e-35
7.2654e-35
-1.59489e-33
1.80465e-13
3.62399e-13
-0.00272339
-0.00153449
-1.20016e-33
1.83943e-34
5.28042e-35
-9.48613e-31
-2.09632e-31
-2.57233e-31
0.261444
-5.78561e-11
1.39308e-11
-9.20075e-24
-3.58532e-23
-1.82289e-05
0.356285
2.00754e-09
9.46238e-21
-1.41194e-21
1.26142e-09
9.46367e-09
2.45708e-12
-1.47914e-12
-9.16145e-19
-3.33395e-19
-0.00247265
1.16554e-17
9.34867e-18
-3.9272e-12
-5.3111e-13
3.84609e-14
-1.21862e-14
1.34319e-15
1.22709e-16
-6.60901e-17
1.23713e-17
3.20335e-19
-1.61537e-19
5.94427e-20
-8.03067e-21
-1.51893e-21
3.85134e-22
-6.43355e-23
-3.59343e-24
2.35033e-24
-6.62855e-25
3.47984e-26
4.7221e-26
-1.58942e-26
-2.64521e-27
1.68876e-27
2.7373e-28
-8.54615e-29
-2.64013e-29
1.04435e-30
1.25014e-30
1.30969e-31
-2.19383e-32
-6.23899e-33
5.2181e-11
-2.54202e-34
0.193261
-1.59718e-16
-1.96487e-11
-2.29612e-11
3.0879e-14
1.50364e-13
6.44504e-16
1.0721e-15
0.31909
0.935175
-6.62448e-31
-2.88331e-30
4.06977e-29
-0.00740284
5.97709e-09
0.96961
1.75992e-21
1.4615e-35
0.80381
-1.47925e-28
-3.2756e-25
-2.53187e-24
-4.82171e-23
2.05092e-20
2.1809e-20
0.0569193
-1.47329e-20
0.202537
-6.98219e-20
-2.17505e-18
-1.19675e-18
2.42231e-16
4.74972e-16
2.79688e-15
-2.30027e-14
-2.07715e-13
3.98525e-13
1.68715e-12
1.37491e-11
1.14209e-11
-1.7032e-10
9.09646e-10
-3.98191e-11
1.1332e-09
-3.095e-08
1.15545e-07
-8.15618e-08
-5.85444e-07
1.71066e-06
1.25691e-06
-3.13578e-06
-5.11374e-05
1.91743e-05
0.00053483
0.000529227
-0.00353296
-0.0112356
7.80514e-10
-7.70529e-06
-2.00856e-05
-3.86177e-06
-8.56351e-31
7.04991e-05
3.362e-06
0.266977
-0.0123711
-0.00698479
-0.000404783
0.000822783
0.000185894
-7.17025e-05
-1.74276e-05
1.94302e-06
2.95787e-06
-3.16309e-07
-1.21391e-07
-5.5729e-08
4.44221e-08
-1.20702e-08
3.80968e-09
-1.16881e-09
-1.05961e-10
7.4764e-12
-1.97598e-12
-5.81379e-33
-3.48888e-32
6.92737e-32
1.41262e-30
3.40769e-22
3.83017e-30
-2.41676e-29
-1.43746e-28
9.12305e-29
2.47953e-27
7.50443e-28
-2.76009e-26
1.90099e-26
1.80719e-25
-7.58051e-25
8.69983e-25
-0.0110401
-0.00305782
0.000656356
0.000495961
-3.54849e-06
-4.86422e-05
-1.50056e-06
1.75114e-06
1.37547e-06
-5.59649e-07
-7.9224e-08
1.16812e-07
-3.27303e-08
2.44635e-09
-7.05804e-10
9.25291e-10
-1.54655e-10
-0.000567361
-0.00980062
1.19372e-11
8.84772e-13
5.84297e-13
-1.67063e-13
-3.02944e-14
1.8888e-15
2.0024e-16
-4.25857e-17
2.25197e-16
4.22579e-18
-2.36199e-18
-3.60112e-24
-1.41923e-28
-4.81438e-25
-1.3481e-33
-1.80553e-32
-3.5906e-32
4.60665e-31
3.05983e-30
-1.39661e-30
-7.26572e-29
-1.47693e-28
9.36763e-28
3.4873e-27
-1.01947e-26
-2.91474e-26
1.25345e-25
-6.46476e-26
-1.09876e-24
6.04016e-24
-1.10826e-16
2.11045e-15
5.56794e-18
-4.76743e-21
-2.00777e-23
-1.86838e-12
9.37218e-20
-9.33209e-15
3.00971e-18
-6.06813e-15
-2.72554e-14
-1.04465e-18
6.69335e-20
-2.8113e-22
7.57271e-22
5.68875e-24
5.11112e-14
1.01167e-13
1.42617e-16
-2.35509e-16
-3.68792e-16
-7.03996e-17
7.23755e-19
1.48564e-22
1.7882e-23
9.3852e-25
5.74164e-28
-5.10796e-23
-1.39221e-19
3.1988e-11
-2.2925e-05
-2.7067e-12
0.000244632
1.00755
1.00503
1.00848
1.00124
1.00397
0.999701
1.00032
0.999651
0.999415
0.999889
0.999679
1.00001
0.99995
1.00002
1.00003
1.00001
1.00002
1
1
0.999999
0.999998
0.999999
0.999999
1
1
1
1
1
1
1
1
1
1
1
1
1
1
1
1
1
1
1
1
1
1
1
1
1
1
1
1
1
1
1
1
1
1
1
1
1
1
1
1
1
1
1
1
1
1
1
1
1
1
1
1
1
1
1
1
1
1
1
1
1
1
1
1
1
1
1
1
1
1
1
1
1
1
1
1
1
1
1
1
1
1
1
1
1
1
1
1
1
1
1
1
1
1
1
1
1
1
1
1
1
1
1
1
1
1
1
1
1
1
1
1
1
1
1
1
1
1
1
1
1
1
1
1
1
1
1
1
1
1
1
1
1
1
1
1
1
1
1
1
1
1
1
1
1
1
1
1
1
1
1
1
1
1
1
1
-2.27367e-19
-3.92477e-10
-4.2318e-31
-2.89679e-13
-5.98423e-33
5.07184e-35
-5.31923e-23
-2.32218e-23
-3.18978e-08
1.75837e-21
-4.86123e-23
-5.98454e-23
5.42027e-20
3.24314e-22
-1.73874e-14
1.37575e-13
2.26177e-13
3.31244e-13
-2.86837e-19
1.41996e-15
3.45418e-18
1.38435e-18
1.54714e-14
9.52052e-14
-1.87946e-14
9.28111e-18
1.01195e-17
7.27414e-18
-6.4829e-16
1.77156e-15
-2.50986e-11
2.45266e-16
1.46742e-18
1.44873e-17
4.17916e-12
-1.76228e-12
3.62117e-20
-6.72024e-20
9.87533e-20
-6.97697e-19
-7.02425e-19
0.00691935
-4.30596e-21
-1.16567e-29
3.22836e-23
2.15008e-22
-5.63299e-23
2.07142e-13
-0.0130743
5.88403e-24
-6.69568e-25
-2.48062e-25
1.25363e-25
-3.61375e-27
-1.47688e-26
6.1751e-28
1.15976e-27
7.41985e-29
-5.46873e-29
-3.24279e-29
-3.52846e-29
4.50997e-22
7.33438e-22
8.94151e-31
5.05533e-31
3.8725e-32
1.08444e-32
-7.6259e-11
0.568575
0.243387
0.230554
2.8666e-12
3.76793e-12
3.90078e-28
1.40063e-17
-0.00767335
-5.01208e-25
-1.43788e-08
-0.0110282
0.00267508
7.75605e-34
-1.09823e-19
-5.06176e-33
-1.04679e-28
2.91763e-28
1.97055e-23
-5.31272e-23
2.19943e-20
0.0253249
-2.74986e-20
-7.05884e-21
-1.75128e-19
-3.4565e-24
2.23034e-23
-4.41955e-21
-8.97583e-21
-2.45462e-18
6.01186e-18
6.72988e-19
-2.66587e-18
-5.86378e-17
2.27898e-16
3.52902e-16
1.92166e-15
-2.42828e-14
-2.3268e-13
8.15502e-14
-9.32955e-33
-1.31969e-32
-2.41297e-12
1.86957e-12
3.0548e-11
8.15469e-12
-1.90149e-12
-4.33534e-12
-1.43087e-12
5.76989e-12
-2.20911e-11
-1.98731e-10
1.00257e-09
3.43153e-10
-6.10169e-10
-2.68628e-08
1.0703e-07
-7.24553e-08
-7.1431e-07
2.34404e-06
1.20076e-06
-6.04394e-06
-6.57224e-05
6.26861e-05
0.000690172
0.000372693
-0.00500123
-0.00951756
-0.0130064
5.09085e-09
-8.96843e-08
1
1
1
1
1
1
1
1
1
1
1
1
1
1
1
1
1
1
1
1
1
1
1
1
1
1
1
1
1
1
1
1
1
1
1
1
1
1
1
1
1
1
1
1
1
1
1
1
1
1
1
1
1
1
1
1
1
1
1
1
1
1
1
1
1
1
1
1
1
1
1
1
1
1
1
1
1
1
1
1
1
1
1
1
1
1
1
1
1
1
1
1
1
1
1
1
1
1
1
1
1
1
1
0.999999
1
0.999998
0.999998
0.999998
0.999998
1
0.999999
1
1
1.00001
1.00001
1.00001
1.00001
1.00001
1.00001
1.00002
1.00002
1.00002
1.00003
1
1.00003
0.999945
1
0.999778
0.999902
0.999415
0.999647
0.99875
0.999132
0.997627
0.998293
0.995997
0.996914
0.993737
0.99506
0.990622
0.992323
0.986297
0.988582
0.980421
0.983452
0.972634
0.976684
0.963002
0.967766
0.951387
0.957114
0.936447
0.943718
0.918587
0.926588
0.897923
0.907964
0.874847
0.885625
0.850852
0.862626
0.824996
0.837508
0.797321
0.811037
0.765311
0.780235
0.728444
0.745603
0.686932
0.703954
0.643673
0.661589
0.589158
0.610818
0.52118
0.543876
0.45847
0.479394
0.388824
0.414447
-6.47023e-21
2.07818e-20
2.42576e-11
1.84423e-11
9.93741e-33
1.20368e-09
4.45597e-09
9.37411e-11
1.01234e-32
3.46607e-32
-3.58561e-31
-4.84463e-17
-2.34124e-17
1.85081e-32
1.50131e-32
-7.15264e-35
-3.54549e-10
-2.89979e-10
-4.31341e-34
-3.39247e-34
4.97223e-09
9.73737e-09
3.0697e-11
6.23306e-12
5.16108e-11
0.579475
0.883085
0.663357
-2.70563e-35
-6.11659e-08
1.34007e-27
4.53774e-28
6.65663e-12
-1.31806e-07
-6.98687e-08
1.38794e-22
1.42644e-22
-3.63861e-26
-2.14806e-26
-4.22429e-06
-1.21872e-18
-1.93157e-32
-1.60204e-05
-8.37753e-31
4.96874e-20
1.4562e-20
-1.69459e-08
-1.70311e-09
1.52721e-25
5.47954e-26
4.84696e-27
0.0953665
-1.58324e-24
-8.08733e-25
1.8419e-13
5.85522e-24
1.88853e-24
1.03404e-06
7.88285e-19
-9.16931e-30
-1.80696e-30
-9.34574e-15
2.05266e-11
1.83619e-32
-0.0124425
-8.78325e-22
-3.54466e-21
6.87298e-16
1.89629e-24
-1.40705e-25
-7.81795e-25
8.9329e-26
2.36465e-26
-3.54303e-26
-4.78517e-27
1.80623e-27
3.74478e-28
-4.70173e-29
-7.83636e-29
-2.33608e-14
9.29207e-31
1.88006e-31
-1.41917e-34
0.300191
1.00006e-21
1.89476e-30
6.59935e-13
4.1705e-13
-8.19872e-21
3.78818e-16
3.54949e-29
-9.266e-29
2.75865e-07
5.88817e-08
8.14865e-31
-2.24717e-30
3.99912e-29
0.99392
-8.84861e-24
0.042903
-8.50351e-31
-6.91475e-10
1.58594e-25
-2.30564e-12
1.2395e-24
0.122026
1.47772e-11
0.211618
1.00399
-4.16176e-18
3.46597e-16
-6.68659e-17
-1.14815e-16
-4.86845e-16
1.03925e-15
-1.72509e-16
-3.07824e-15
1.12379e-13
-1.47707e-09
-1.87164e-09
5.90393e-05
-6.63714e-11
5.02929e-11
1.04637e-09
-4.61264e-10
0.000198713
4.88248e-09
-2.03382e-08