/*--------------------------------*- C++ -*----------------------------------*\
  =========                 |
  \\      /  F ield         | OpenFOAM: The Open Source CFD Toolbox
   \\    /   O peration     | Website:  https://openfoam.org
    \\  /    A nd           | Version:  7
     \\/     M anipulation  |
\*---------------------------------------------------------------------------*/
FoamFile
{
    version     2.0;
    format      ascii;
    class       volScalarField;
    location    "0.75";
    object      T;
}
// * * * * * * * * * * * * * * * * * * * * * * * * * * * * * * * * * * * * * //

dimensions      [0 0 0 1 0 0 0];

internalField   nonuniform List<scalar> 
2500
(
0.5
0.0669146
-0.0353169
-0.0277115
-0.00789976
0.00112931
0.00220711
0.000963794
3.88563e-05
-0.000206219
-0.000130475
-2.60559e-05
1.76156e-05
1.74837e-05
6.08561e-06
-9.06071e-07
-2.20759e-06
-1.13469e-06
-1.06162e-07
2.47861e-07
1.87026e-07
4.93939e-08
-2.1395e-08
-2.7799e-08
-1.1765e-08
4.04161e-10
3.66562e-09
2.27479e-09
4.34876e-10
-3.55178e-10
-3.38212e-10
-1.0585e-10
3.0638e-11
4.43853e-11
1.05462e-11
-1.44795e-11
-1.77594e-11
-9.31854e-12
-6.4501e-13
3.47444e-12
3.6393e-12
2.14866e-12
7.03004e-13
-9.04828e-14
-3.15965e-13
-2.57479e-13
-1.33782e-13
-4.24546e-14
8.85668e-16
1.28836e-14
0.933085
0.5
0.14482
-0.0139075
-0.0411718
-0.0230289
-0.00507433
0.00215701
0.00250723
0.00101071
-9.38737e-08
-0.000255324
-0.000158213
-3.18213e-05
2.20241e-05
2.24005e-05
8.17946e-06
-9.4818e-07
-2.86443e-06
-1.56603e-06
-2.0014e-07
3.13489e-07
2.58852e-07
7.77005e-08
-2.39995e-08
-3.80392e-08
-1.78851e-08
-7.05552e-10
4.66867e-09
3.21887e-09
7.52554e-10
-3.97373e-10
-4.11e-10
-9.02247e-11
1.01016e-10
1.06583e-10
3.55211e-11
-2.0905e-11
-3.69222e-11
-2.66427e-11
-1.05237e-11
2.75623e-13
4.12675e-12
3.74915e-12
2.0697e-12
6.79352e-13
-2.66578e-14
-2.23316e-13
-1.89631e-13
-7.88113e-14
1.03532
0.85518
0.5
0.182448
0.00830364
-0.0419281
-0.032441
-0.0120093
3.84408e-05
0.00307766
0.00201936
0.000522644
-0.000189734
-0.000261936
-0.000118925
-6.07708e-06
2.86043e-05
2.02421e-05
5.19524e-06
-2.29057e-06
-2.95624e-06
-1.27805e-06
8.52649e-09
3.71924e-07
2.41147e-07
5.06619e-08
-3.66771e-08
-3.89122e-08
-1.50781e-08
1.17519e-09
4.89229e-09
2.64442e-09
1.8984e-10
-6.49105e-10
-4.02685e-10
2.96622e-11
2.23242e-10
1.8696e-10
7.25083e-11
-1.26982e-11
-4.23364e-11
-3.55235e-11
-1.79143e-11
-4.22085e-12
2.12436e-12
3.28138e-12
2.28146e-12
1.04111e-12
2.58983e-13
-1.06395e-13
1.02771
1.01391
0.817552
0.5
0.206389
0.0268058
-0.0388677
-0.0384381
-0.0184166
-0.00302402
0.00284105
0.00282245
0.00118552
4.2633e-05
-0.000296282
-0.000211922
-6.02235e-05
1.88442e-05
2.95095e-05
1.43558e-05
1.17977e-06
-3.31262e-06
-2.54105e-06
-7.34847e-07
2.46767e-07
3.77816e-07
1.79935e-07
9.99962e-09
-4.53997e-08
-3.27593e-08
-8.46077e-09
3.64779e-09
4.37066e-09
1.30919e-09
-7.68056e-10
-1.03471e-09
-4.36468e-10
1.18002e-10
3.15727e-10
2.5084e-10
1.0984e-10
6.48876e-12
-3.46675e-11
-3.46229e-11
-2.01766e-11
-7.14454e-12
-1.47525e-13
1.99754e-12
1.81481e-12
7.90081e-13
1.0079
1.04117
0.991696
0.793611
0.5
0.223365
0.042154
-0.0343031
-0.0421139
-0.0239644
-0.00647534
0.00197761
0.00332499
0.00186777
0.000400612
-0.000245072
-0.000285991
-0.000129611
-8.12735e-06
3.15022e-05
2.39229e-05
7.2558e-06
-1.97891e-06
-3.44977e-06
-1.76281e-06
-1.86208e-07
3.90113e-07
3.18491e-07
1.01296e-07
-2.37702e-08
-4.39761e-08
-2.10941e-08
-5.04623e-10
5.78634e-09
3.41995e-09
-1.54874e-10
-1.6954e-09
-1.40348e-09
-5.18382e-10
1.23891e-10
3.33965e-10
2.69413e-10
1.29767e-10
2.54809e-11
-2.0482e-11
-2.68828e-11
-1.77383e-11
-7.64818e-12
-1.5816e-12
1.04289e-12
0.998871
1.02303
1.04193
0.973194
0.776635
0.5
0.236308
0.0551561
-0.0291433
-0.0442026
-0.0286476
-0.0100134
0.000663016
0.00351519
0.00249279
0.000838179
-0.000110139
-0.000325109
-0.00020245
-4.98928e-05
2.37003e-05
3.12704e-05
1.49636e-05
1.26022e-06
-3.52248e-06
-2.80981e-06
-9.02172e-07
2.05896e-07
4.05174e-07
2.15075e-07
2.76434e-08
-4.2338e-08
-3.36495e-08
-7.33978e-09
6.79961e-09
7.29672e-09
2.52964e-09
-1.20838e-09
-2.2616e-09
-1.60881e-09
-5.95418e-10
6.61277e-11
2.84385e-10
2.41568e-10
1.25873e-10
3.58321e-11
-7.20183e-12
-1.71596e-11
-1.31467e-11
-4.91129e-12
0.997793
1.00507
1.03244
1.03887
0.957846
0.763692
0.5
0.246668
0.0663827
-0.0238073
-0.0451887
-0.0325522
-0.0134733
-0.000959178
0.00341734
0.00301639
0.00131432
9.73299e-05
-0.000320961
-0.000268331
-0.000102054
5.40053e-06
3.42601e-05
2.29999e-05
6.22383e-06
-2.42674e-06
-3.56739e-06
-1.78866e-06
-1.96284e-07
3.86995e-07
3.18561e-07
9.93456e-08
-2.79919e-08
-4.66959e-08
-1.95228e-08
4.74673e-09
1.19686e-08
8.03379e-09
1.94788e-09
-1.6371e-09
-2.35052e-09
-1.58344e-09
-6.12628e-10
-7.17713e-12
2.01955e-10
1.86144e-10
1.03953e-10
3.60377e-11
1.28338e-12
-9.65115e-12
0.999036
0.997843
1.01201
1.03844
1.0343
0.944844
0.753332
0.5
0.255249
0.0762288
-0.0184971
-0.0453946
-0.0357829
-0.0167686
-0.00277966
0.00306919
0.00341666
0.00179625
0.000362307
-0.000271061
-0.000319195
-0.000159502
-2.26989e-05
3.14496e-05
3.00121e-05
1.24327e-05
-2.14117e-08
-3.74866e-06
-2.67107e-06
-7.75815e-07
2.43406e-07
3.88896e-07
1.83294e-07
-1.02191e-09
-6.14663e-08
-4.20134e-08
-6.73261e-09
1.26195e-08
1.4283e-08
7.91418e-09
1.63084e-09
-1.54315e-09
-2.05388e-09
-1.36194e-09
-5.54247e-10
-5.90879e-11
1.21269e-10
1.25615e-10
7.60513e-11
2.05355e-11
0.999961
0.997493
0.999962
1.01842
1.04211
1.02914
0.933617
0.744751
0.5
0.262537
0.0849758
-0.0133115
-0.0450396
-0.0384394
-0.0198576
-0.00471768
0.00251112
0.00368607
0.00225945
0.000669096
-0.000176901
-0.000349471
-0.000217242
-5.89723e-05
2.20951e-05
3.47673e-05
1.92026e-05
3.62055e-06
-3.15867e-06
-3.36815e-06
-1.45177e-06
-1.13472e-08
4.25316e-07
2.86657e-07
5.10536e-08
-6.95205e-08
-7.45952e-08
-3.34923e-08
1.84787e-09
1.56727e-08
1.39274e-08
7.02316e-09
1.41675e-09
-1.1757e-09
-1.56449e-09
-1.03979e-09
-4.43131e-10
-7.85219e-11
6.21406e-11
7.03733e-11
1.00021
0.998989
0.996922
1.00302
1.02396
1.0442
1.02381
0.923771
0.737463
0.5
0.268847
0.0928295
-0.00829713
-0.0442768
-0.0406094
-0.0227243
-0.00671456
0.0017813
0.00382595
0.00268654
0.001003
-4.24455e-05
-0.000355816
-0.00027084
-0.000101262
6.07542e-06
3.62616e-05
2.57399e-05
8.21665e-06
-1.75618e-06
-3.76815e-06
-2.16236e-06
-3.64652e-07
4.30859e-07
4.25934e-07
1.55838e-07
-4.50241e-08
-1.02318e-07
-7.23734e-08
-2.4549e-08
5.88572e-09
1.49114e-08
1.17579e-08
5.63749e-09
1.18884e-09
-7.61968e-10
-1.06156e-09
-7.13428e-10
-3.21104e-10
-3.23535e-11
1.00013
1
0.997981
0.997159
1.00648
1.02865
1.04519
1.0185
0.915024
0.731153
0.5
0.274394
0.0999444
-0.00347339
-0.0432147
-0.0423674
-0.025367
-0.00872811
0.000913717
0.00384277
0.00306585
0.00135108
0.000127006
-0.000336673
-0.000316576
-0.00014712
-1.61495e-05
3.38517e-05
3.13031e-05
1.33679e-05
3.58678e-07
-3.86642e-06
-2.92023e-06
-8.60113e-07
3.66219e-07
5.92646e-07
3.35037e-07
4.66804e-08
-9.47874e-08
-1.05564e-07
-6.09081e-08
-1.68217e-08
6.59068e-09
1.20333e-08
8.83206e-09
4.11329e-09
9.23328e-10
-4.28104e-10
-6.60805e-10
-3.75092e-10
1.00003
1.00026
0.999477
0.997178
0.998022
1.01001
1.03255
1.04539
1.01331
0.90717
0.725606
0.5
0.279329
0.106439
0.00115474
-0.041932
-0.0437761
-0.0277924
-0.0107283
-6.22668e-05
0.0037458
0.00339018
0.00170246
0.000325601
-0.00029184
-0.000351466
-0.000193961
-4.35619e-05
2.74068e-05
3.54341e-05
1.87701e-05
3.08854e-06
-3.68997e-06
-3.78935e-06
-1.6097e-06
1.16998e-07
7.12935e-07
5.67235e-07
2.21965e-07
-2.11447e-08
-1.05454e-07
-9.0352e-08
-4.58525e-08
-1.08312e-08
5.53794e-09
8.58186e-09
5.99988e-09
2.74298e-09
6.62758e-10
-3.09201e-10
0.999982
1.00016
1.00019
0.998814
0.996675
0.999337
1.01347
1.03578
1.04504
1.0083
0.900056
0.720671
0.5
0.283765
0.112406
0.00559006
-0.0404869
-0.0448875
-0.0300111
-0.012694
-0.00112177
0.00354558
0.00365562
0.00204814
0.000547296
-0.000222272
-0.000373415
-0.000239371
-7.47933e-05
1.72962e-05
3.81035e-05
2.44305e-05
6.55752e-06
-3.11353e-06
-4.75112e-06
-2.71296e-06
-4.73571e-07
6.44274e-07
7.64381e-07
4.49969e-07
1.25593e-07
-5.01936e-08
-9.19644e-08
-6.77277e-08
-3.13471e-08
-6.54937e-09
3.95129e-09
5.52233e-09
3.78193e-09
1.24326e-09
0.999983
1.00003
1.00026
0.999957
0.998132
0.996485
1.00096
1.01677
1.03844
1.04428
1.00347
0.893561
0.716235
0.5
0.287787
0.11792
0.00983943
-0.0389223
-0.0457452
-0.0320358
-0.0146107
-0.00224397
0.00325291
0.00386053
0.0023807
0.000785877
-0.000130175
-0.00038163
-0.000281712
-0.000108713
3.97817e-06
3.95129e-05
3.06467e-05
1.12076e-05
-1.70225e-06
-5.5328e-06
-4.1067e-06
-1.49665e-06
2.35623e-07
7.91787e-07
6.46962e-07
3.11967e-07
5.93101e-08
-5.30957e-08
-6.88019e-08
-4.56046e-08
-1.96395e-08
-3.71784e-09
2.54967e-09
3.04644e-09
0.999994
0.999978
1.00012
1.0003
0.999599
0.997507
0.996583
1.00278
1.01986
1.04061
1.04321
0.998845
0.887594
0.712213
0.5
0.291459
0.123039
0.0139117
-0.0372711
-0.0463857
-0.0338802
-0.0164685
-0.00341167
0.00287831
0.00400502
0.00269415
0.00103517
-1.89084e-05
-0.000376899
-0.000320766
-0.00014523
-1.27699e-05
3.94767e-05
3.75867e-05
1.75752e-05
1.22897e-06
-5.55219e-06
-5.45047e-06
-2.85341e-06
-5.71227e-07
5.32848e-07
7.06559e-07
4.70223e-07
1.93273e-07
2.11872e-08
-4.32009e-08
-4.58186e-08
-2.79749e-08
-1.15065e-08
-5.14448e-10
1
0.999978
1.00001
1.00021
1.00025
0.999162
0.996984
0.996931
1.00472
1.02272
1.04237
1.04193
0.99441
0.88208
0.708541
0.5
0.294834
0.127814
0.0178165
-0.0355581
-0.0468398
-0.0355577
-0.0182613
-0.00461032
0.00243245
0.00409129
0.00298481
0.00129025
0.000108113
-0.000360935
-0.000357617
-0.000185632
-3.44718e-05
3.67058e-05
4.46195e-05
2.57587e-05
6.26349e-06
-4.09301e-06
-6.16368e-06
-4.20823e-06
-1.66265e-06
-3.60611e-08
5.5293e-07
5.27307e-07
3.03579e-07
1.08124e-07
3.13927e-09
-2.99878e-08
-2.81071e-08
-1.2672e-08
1
0.999992
0.999971
1.00006
1.00029
1.00011
0.998686
0.996583
0.997489
1.00671
1.02537
1.04378
1.04049
0.990161
0.876961
0.705166
0.5
0.297951
0.132284
0.0215636
-0.0338026
-0.0471332
-0.0370812
-0.0199848
-0.0058269
0.00192694
0.0041248
0.00325303
0.00154964
0.000249801
-0.000334291
-0.000393157
-0.000231756
-6.37103e-05
2.86093e-05
4.98556e-05
3.48738e-05
1.3387e-05
-6.72357e-07
-5.64283e-06
-5.07747e-06
-2.75689e-06
-8.08556e-07
1.86001e-07
4.40914e-07
3.4569e-07
1.77144e-07
5.49162e-08
-3.34275e-09
-1.88072e-08
1
1
0.99998
0.999981
1.00013
1.00033
0.999903
0.998204
0.996314
0.998219
1.00873
1.02779
1.04489
1.03892
0.986088
0.872186
0.702049
0.5
0.300845
0.136483
0.0251626
-0.0320191
-0.0472876
-0.0384629
-0.0216367
-0.00705026
0.00137375
0.00411396
0.00350384
0.00181708
0.000409879
-0.000293602
-0.000425509
-0.000283913
-0.000102703
1.20676e-05
5.03776e-05
4.29102e-05
2.16564e-05
4.59437e-06
-3.5615e-06
-5.02571e-06
-3.50205e-06
-1.57638e-06
-3.09047e-07
2.21715e-07
2.99401e-07
2.03712e-07
9.57107e-08
1.36615e-08
1
1
0.999995
0.99997
1.00001
1.0002
1.00032
0.999638
0.997741
0.996174
0.999086
1.01073
1.03001
1.04575
1.03727
0.982184
0.867716
0.699155
0.5
0.303543
0.140441
0.0286238
-0.0302187
-0.0473224
-0.0397164
-0.0232198
-0.00827512
0.000780762
0.00406606
0.00374405
0.00210023
0.000597183
-0.000230096
-0.000447863
-0.000338557
-0.00015121
-1.49669e-05
4.32602e-05
4.72208e-05
2.92943e-05
1.08604e-05
-8.67551e-08
-3.86873e-06
-3.62104e-06
-2.11049e-06
-7.93986e-07
-7.01592e-08
1.76834e-07
1.82898e-07
8.95065e-08
1
1
1
0.999986
0.999968
1.00005
1.00027
1.00027
0.999331
0.997313
0.996157
1.00006
1.01269
1.03204
1.04639
1.03556
0.978436
0.863517
0.696457
0.5
0.306068
0.144183
0.0319565
-0.0284116
-0.0472582
-0.0408618
-0.0247476
-0.00950897
0.000143736
0.00397908
0.0039749
0.00240494
0.000821949
-0.000131312
-0.00044857
-0.000387267
-0.00020496
-5.18167e-05
2.69651e-05
4.54971e-05
3.42362e-05
1.6755e-05
4.11626e-06
-1.77418e-06
-3.02798e-06
-2.25262e-06
-1.13333e-06
-3.51473e-07
1.79387e-08
1.17832e-07
1
1
1
0.999999
0.999976
0.999976
1.0001
1.00032
1.00018
0.998997
0.996934
0.996254
1.00112
1.01461
1.03388
1.04684
1.0338
0.974838
0.85956
0.693932
0.5
0.30844
0.147731
0.0351684
-0.0266078
-0.0471171
-0.0419253
-0.026246
-0.0107767
-0.000560699
0.00383294
0.00418278
0.00272659
0.00108863
1.36593e-05
-0.000414334
-0.000418146
-0.000255708
-9.43398e-05
2.39039e-06
3.67691e-05
3.48874e-05
2.08484e-05
8.101e-06
7.90395e-07
-1.85977e-06
-1.97205e-06
-1.24437e-06
-5.55133e-07
-6.68052e-08
1
1
1
1
0.999993
0.999969
0.999995
1.00016
1.00035
1.00004
0.998649
0.99661
0.996455
1.00224
1.01647
1.03556
1.04713
1.03202
0.971379
0.85582
0.69156
0.499996
0.310673
0.151105
0.0382727
-0.0248071
-0.0469116
-0.0429291
-0.0277454
-0.0121152
-0.00137386
0.00358689
0.00433371
0.00304293
0.00138841
0.000207422
-0.000335556
-0.000419455
-0.000293243
-0.000135644
-2.70077e-05
2.19321e-05
3.07306e-05
2.21537e-05
1.09704e-05
3.22986e-06
-4.1536e-07
-1.36321e-06
-1.13993e-06
-4.94616e-07
1
1
1
1
1
0.999985
0.999966
1.00002
1.00022
1.00036
0.999873
0.998298
0.996344
0.996747
1.00341
1.01826
1.03708
1.04729
1.03022
0.968051
0.852273
0.689315
0.499983
0.312782
0.154336
0.0413057
-0.022977
-0.0466194
-0.0438662
-0.0292568
-0.0135546
-0.00234104
0.00318799
0.00437673
0.00331341
0.0016957
0.00043935
-0.000211424
-0.000383986
-0.000308585
-0.000168042
-5.61263e-05
3.54882e-06
2.25103e-05
2.04407e-05
1.21679e-05
5.02662e-06
9.63002e-07
-6.19358e-07
-7.76544e-07
1
1
1
1
1
0.999999
0.999977
0.999969
1.00006
1.00027
1.00034
0.999674
0.997952
0.99614
0.997122
1.00461
1.01998
1.03846
1.04732
1.02842
0.964843
0.848892
0.687176
0.499959
0.314798
0.157484
0.0443504
-0.0210255
-0.0461543
-0.0446693
-0.030742
-0.0150897
-0.00348734
0.00259018
0.00425731
0.00348699
0.00197129
0.000685323
-5.22359e-05
-0.000312192
-0.000296995
-0.000185407
-7.97552e-05
-1.49594e-05
1.1948e-05
1.62499e-05
1.1614e-05
5.89011e-06
2.01531e-06
-1.39301e-07
1
1
1
1
1
1
0.999994
0.99997
0.999978
1.0001
1.00032
1.00029
0.999453
0.997619
0.995995
0.997568
1.00583
1.02164
1.03971
1.04726
1.02662
0.961744
0.845653
0.685123
0.499927
0.316765
0.160642
0.0475422
-0.0187915
-0.0453512
-0.0451921
-0.032091
-0.0166558
-0.00479298
0.00177696
0.00393635
0.00351651
0.00217178
0.000912735
0.00012225
-0.000212695
-0.000259527
-0.00018495
-9.40841e-05
-3.03553e-05
1.15164e-06
1.0643e-05
9.64988e-06
5.88984e-06
1.86815e-06
1
1
1
1
1
1
1
0.999988
0.999965
0.999994
1.00015
1.00035
1.00022
0.999213
0.997304
0.99591
0.998079
1.00705
1.02321
1.04084
1.04711
1.02484
0.958757
0.842538
0.683122
0.499869
0.318707
0.1639
0.0510362
-0.01607
-0.0439844
-0.0452187
-0.0331229
-0.018122
-0.00618065
0.000777512
0.00340694
0.0033738
0.0022616
0.00108892
0.000287811
-0.000100018
-0.000202603
-0.000167786
-9.76108e-05
-4.0442e-05
-8.00921e-06
4.80838e-06
7.01405e-06
4.25619e-06
1
1
1
1
1
1
1
1
0.999981
0.999964
1.00002
1.00019
1.00037
1.00013
0.998961
0.997017
0.995887
0.99864
1.00827
1.0247
1.04187
1.04692
1.02313
0.955886
0.839483
0.681054
0.499651
0.320538
0.167259
0.0549349
-0.0126757
-0.0418211
-0.044507
-0.0336169
-0.0193092
-0.00752246
-0.000331522
0.00270177
0.00305959
0.00222308
0.00118971
0.000422063
9.39823e-06
-0.000135964
-0.000138231
-9.12181e-05
-4.44592e-05
-1.4358e-05
-1.7832e-07
4.15546e-06
1
1
1
1
1
1
1
1
0.999996
0.999974
0.999966
1.00004
1.00024
1.00038
1.00001
0.998709
0.996764
0.995915
0.999222
1.00944
1.02611
1.04286
1.04681
1.02154
0.953066
0.836261
0.678565
0.498887
0.321937
0.170533
0.0592013
-0.00852248
-0.0386953
-0.042854
-0.0333663
-0.02003
-0.00866595
-0.00144019
0.00188805
0.00260465
0.00206091
0.00120504
0.000509738
0.00010132
-6.99268e-05
-0.000102296
-7.75496e-05
-4.29757e-05
-1.7717e-05
-1.70848e-06
1
1
1
1
1
1
1
1
1
0.999991
0.999969
0.999974
1.00008
1.00028
1.00037
0.999886
0.998468
0.996543
0.995962
0.999779
1.01056
1.02754
1.04399
1.04689
1.02004
0.949987
0.832282
0.674896
0.496809
0.322268
0.173285
0.0636003
-0.0036861
-0.0345745
-0.0401602
-0.0322354
-0.0201364
-0.00947003
-0.00243008
0.00105233
0.00206214
0.00179995
0.00114011
0.000545346
0.000166626
-1.29596e-05
-6.60066e-05
-5.99711e-05
-3.80444e-05
-1.36084e-05
1
1
1
1
1
1
1
1
1
1
0.999986
0.999966
0.999986
1.00011
1.00031
1.00035
0.999764
0.998243
0.996319
0.995966
1.00029
1.01173
1.02919
1.04547
1.04722
1.0183
0.945853
0.826404
0.668775
0.492237
0.320588
0.174849
0.067702
0.00157845
-0.029592
-0.0364709
-0.0302023
-0.0195581
-0.00983827
-0.00320101
0.000280782
0.0014947
0.00147798
0.00101234
0.000532842
0.000202338
2.97486e-05
-3.39837e-05
-4.25727e-05
-2.5543e-05
1
1
1
1
1
1
1
1
1
1
0.999999
0.999983
0.999966
0.999997
1.00013
1.00034
1.00034
0.999656
0.997999
0.996018
0.995882
1.00083
1.01321
1.03139
1.04745
1.04746
1.01535
0.939185
0.816871
0.658477
0.483714
0.315793
0.174441
0.0709568
0.00687529
-0.0240343
-0.0319783
-0.0273699
-0.0183201
-0.00973897
-0.00369096
-0.000358187
0.000960831
0.00113639
0.000845895
0.000483028
0.000210894
5.66818e-05
-9.54e-06
-2.54322e-05
1
1
1
1
1
1
1
1
1
1
1
0.999998
0.99998
0.999963
1
1.00016
1.00039
1.00035
0.999527
0.997648
0.995569
0.995773
1.00169
1.01538
1.03438
1.04965
1.04659
1.00947
0.927802
0.801467
0.642092
0.469784
0.306859
0.171341
0.0728165
0.0117483
-0.0182872
-0.0269865
-0.0239465
-0.0165356
-0.00920749
-0.00388425
-0.000824619
0.000504587
0.00081171
0.000665687
0.000409927
0.000198325
6.97468e-05
-9.23012e-07
1
1
1
1
1
1
1
1
1
1
1
1
0.999997
0.999973
0.999953
1.00001
1.00022
1.00047
1.00036
0.999287
0.997098
0.995009
0.995925
1.00333
1.01862
1.03799
1.05104
1.04268
0.998127
0.909077
0.777919
0.617939
0.449355
0.293107
0.165075
0.0728623
0.0157769
-0.0127599
-0.0218523
-0.0202032
-0.0143788
-0.00833266
-0.00380786
-0.00110921
0.000150592
0.000530202
0.000492754
0.000327145
0.000174541
5.06944e-05
1
1
1
1
1
1
1
1
1
0.999999
1
1
1.00001
0.999993
0.999958
0.999941
1.00004
1.00032
1.00058
1.00028
0.99882
0.996356
0.994612
0.996848
1.00622
1.02286
1.04122
1.04958
1.03293
0.978346
0.880447
0.744427
0.585017
0.422012
0.274404
0.155542
0.0708989
0.0186574
-0.00781081
-0.0169207
-0.0164217
-0.0120483
-0.00723375
-0.00351907
-0.00122847
-9.56435e-05
0.000305956
0.000341112
0.000250077
0.000113879
1
1
1
1
1
1
1
1
1
0.999999
0.999999
1
1.00001
1.00001
0.99998
0.999936
0.999947
1.00012
1.00045
1.00061
0.999966
0.998108
0.99567
0.994903
0.999079
1.0104
1.02718
1.04197
1.04226
1.01409
0.947315
0.840037
0.700163
0.543321
0.388178
0.251234
0.143052
0.0669895
0.0202496
-0.00369336
-0.0124714
-0.0128496
-0.00973221
-0.0060357
-0.00308965
-0.00121583
-0.000243526
0.000141271
0.000222851
0.000154159
1
1
1
1
1
1
1
1
1
1
0.999999
1
1.00001
1.00001
0.999997
0.999958
0.999927
0.999999
1.00025
1.00054
1.00044
0.999389
0.997366
0.995558
0.996467
1.00276
1.01503
1.02947
1.03711
1.02558
0.983099
0.903073
0.787194
0.645579
0.49394
0.349089
0.224621
0.128264
0.061431
0.0205822
-0.000532207
-0.00868834
-0.00966944
-0.00758164
-0.00484875
-0.00259115
-0.00111169
-0.000312171
3.34724e-05
0.000128889
1
1
1
1
1
1
1
1
1
1
0.999999
0.999999
1
1.00001
1
0.999979
0.999945
0.999958
1.0001
1.00034
1.00045
1.00001
0.998734
0.997093
0.996627
0.999526
1.00716
1.01806
1.02652
1.02293
0.996255
0.937867
0.845075
0.722768
0.582415
0.438907
0.306585
0.195954
0.11206
0.0546836
0.0198237
0.00167158
-0.00565265
-0.00698742
-0.00569798
-0.003756
-0.00208414
-0.000955298
-0.000326173
6.85547e-06
1
1
1
1
1
1
1
1
1
1
0.999999
0.999999
1
1
1
0.999991
0.99997
0.999967
1.00003
1.00017
1.00028
1.00013
0.999487
0.998474
0.997895
0.999147
1.00342
1.01026
1.01623
1.01447
0.995919
0.95202
0.877864
0.774454
0.64905
0.513439
0.380861
0.262805
0.16675
0.0953969
0.0472808
0.0182319
0.00301412
-0.00335543
-0.00483722
-0.00413159
-0.00280911
-0.0016117
-0.0007895
-0.0002115
1
1
1
1
1
1
1
1
1
1
1
1
1
1
1
0.999993
0.999986
0.999991
1.00002
1.00007
1.0001
1.00001
0.999729
0.999325
0.999203
1.00007
1.00252
1.00621
1.00884
1.00561
0.989634
0.953635
0.892278
0.804374
0.6939
0.569404
0.44198
0.322618
0.219855
0.138434
0.0791602
0.039743
0.0160996
0.00365213
-0.00172214
-0.00319526
-0.00288965
-0.00202836
-0.00121887
-0.000483084
1
1
1
1
1
1
1
1
1
1
1
1
1
1
0.999998
0.999991
0.999992
1.00001
1.00004
1.00005
0.999989
0.999847
0.999685
0.999676
1.00009
1.00121
1.00304
1.00487
1.00471
0.998909
0.98236
0.949389
0.895354
0.818345
0.72033
0.607214
0.487711
0.371419
0.266777
0.179541
0.112165
0.064067
0.032512
0.0137068
0.00376633
-0.000640424
-0.00200055
-0.00194485
-0.00143773
-0.000726722
1
1
1
1
1
1
1
1
1
1
1
1
1
1
0.999996
0.999988
0.999992
1.00002
1.00006
1.00006
0.999942
0.999723
0.999549
0.999714
1.00053
1.00208
1.00397
1.00501
1.00306
0.994921
0.976564
0.943725
0.892873
0.822349
0.733275
0.629827
0.51869
0.407791
0.304737
0.21542
0.143194
0.0887533
0.0506118
0.0259136
0.0112884
0.0035319
1.43807e-05
-0.00116964
-0.0012799
-0.000842799
1
1
1
1
1
1
1
1
1
1
0.999999
1
1
1
0.999996
0.999986
0.99999
1.00002
1.00008
1.00008
0.999938
0.999659
0.999426
0.999623
1.00065
1.00256
1.00476
1.00568
1.00287
0.993121
0.972918
0.93894
0.888713
0.821273
0.737703
0.641334
0.537445
0.432473
0.332911
0.244204
0.169956
0.111609
0.068635
0.0390602
0.0201473
0.00901738
0.00309853
0.000364354
-0.00063763
-0.000740912
1
1
1
1
1
1
1
1
1
1
0.999999
1
1
1
0.999996
0.999985
0.999987
1.00002
1.00008
1.00009
0.999951
0.999641
0.999353
0.999517
1.00061
1.00274
1.00524
1.00634
1.00328
0.992675
0.971112
0.935771
0.884946
0.818418
0.737648
0.645766
0.547288
0.447567
0.352048
0.265475
0.191249
0.131097
0.0850787
0.0519158
0.0294768
0.0152971
0.00700271
0.00258315
0.000508588
-0.000365377
1
1
1
1
1
1
1
1
1
1
0.999999
1
1
1
0.999996
0.999985
0.999986
1.00002
1.00008
1.0001
0.999964
0.999645
0.999323
0.999443
1.00053
1.00275
1.00545
1.00679
1.00379
0.99286
0.970507
0.934082
0.882322
0.815594
0.735847
0.646373
0.551415
0.455692
0.363851
0.279929
0.206915
0.146478
0.0989442
0.0634809
0.0384433
0.0217717
0.0113553
0.00529556
0.00208697
0.000290077
1
1
1
1
1
1
1
1
1
1
0.999999
1
1
1
0.999997
0.999985
0.999985
1.00002
1.00008
1.0001
0.999973
0.999656
0.999319
0.999406
1.00046
1.0027
1.00551
1.00701
1.00417
0.993213
0.970513
0.93341
0.880836
0.813522
0.733838
0.645367
0.552381
0.459321
0.370337
0.288905
0.21756
0.157744
0.109803
0.0731291
0.046402
0.0278927
0.0157539
0.00824488
0.00395623
0.00118228
1
1
1
1
1
1
1
1
1
1
0.999999
1
1
1
0.999997
0.999986
0.999986
1.00002
1.00008
1.0001
0.999977
0.999664
0.999325
0.999394
1.00042
1.00265
1.00549
1.00709
1.00439
0.993516
0.97073
0.933292
0.880172
0.812283
0.732276
0.644015
0.55193
0.460418
0.37338
0.293925
0.224209
0.165396
0.117722
0.0806287
0.0529737
0.0332562
0.0198476
0.0111689
0.00594223
0.00223164
1
1
1
1
1
1
1
1
1
1
0.999999
1
1
1
0.999997
0.999986
0.999986
1.00002
1.00008
1.0001
0.999978
0.999669
0.999332
0.999395
1.0004
1.00261
1.00545
1.0071
1.00448
0.993706
0.970951
0.933399
0.879984
0.81168
0.731294
0.642892
0.551079
0.460323
0.374452
0.296374
0.227982
0.170198
0.123096
0.0860723
0.058044
0.0376407
0.0233899
0.0138486
0.0078751
0.00334124
1
1
1
1
1
1
1
1
1
1
0.999999
1
1
1
0.999997
0.999986
0.999986
1.00002
1.00008
1.0001
0.999978
0.999671
0.999337
0.9994
1.0004
1.00259
1.00542
1.00708
1.0045
0.993799
0.971105
0.933547
0.880011
0.811466
0.730782
0.642148
0.550307
0.459828
0.374558
0.297328
0.22988
0.172958
0.126484
0.0897678
0.0617144
0.041007
0.0262665
0.016148
0.00962906
0.00442571
1
1
1
1
1
1
1
1
1
1
0.999999
1
1
1
0.999997
0.999986
0.999986
1.00002
1.00008
1.0001
0.999977
0.999671
0.999339
0.999404
1.0004
1.00259
1.0054
1.00706
1.00449
0.993831
0.971188
0.933661
0.880097
0.81144
0.730572
0.64174
0.549777
0.459336
0.374317
0.29754
0.23068
0.174373
0.128428
0.0920664
0.0641515
0.0433729
0.0283959
0.0179353
0.0110586
0.00536404
1
1
1
1
1
1
1
1
1
1
0.999999
1
1
1
0.999997
0.999986
0.999986
1.00002
1.00008
1.0001
0.999977
0.999671
0.99934
0.999406
1.00041
1.00259
1.00539
1.00704
1.00448
0.993831
0.971227
0.933743
0.880197
0.811501
0.730523
0.641528
0.549402
0.458876
0.373914
0.297373
0.23091
0.1751
0.129661
0.0937261
0.0660914
0.0454167
0.0303757
0.0197157
0.0125813
0.00645357
)
;

boundaryField
{
    upperWall
    {
        type            zeroGradient;
    }
    outlet
    {
        type            zeroGradient;
    }
    inlet
    {
        type            fixedValue;
        value           uniform 1;
    }
    lowerWall
    {
        type            fixedValue;
        value           uniform 0;
    }
    frontAndBack
    {
        type            empty;
    }
}


// ************************************************************************* //
