/*--------------------------------*- C++ -*----------------------------------*\
  =========                 |
  \\      /  F ield         | OpenFOAM: The Open Source CFD Toolbox
   \\    /   O peration     | Website:  https://openfoam.org
    \\  /    A nd           | Version:  7
     \\/     M anipulation  |
\*---------------------------------------------------------------------------*/
FoamFile
{
    version     2.0;
    format      ascii;
    class       volScalarField;
    location    "0.95";
    object      T;
}
// * * * * * * * * * * * * * * * * * * * * * * * * * * * * * * * * * * * * * //

dimensions      [0 0 0 1 0 0 0];

internalField   nonuniform List<scalar> 
5936
(
0.509388
0.913124
0.999003
0.982342
1.00586
1.01594
1.00206
1.00701
1.00021
1.00101
0.999887
0.999757
0.99995
0.999843
0.999998
0.999979
1
1
0.999999
0.999998
0.999999
0.999996
0.999999
0.999998
1
1
1
1
1
1
1
1
1
1
1
1
1
1
1
1
1
1
1
1
1
1
1
1
1
1
1
1
1
1
1
1
1
1
1
1
1
1
1
1
1
1
1
1
1
1
1
1
1
1
1
1
1
1
1
1
1
1
1
1
1
1
1
1
1
1
1
1
1
1
1
1
1
1
1
0.116255
-0.00308433
-0.000220626
4.08817e-05
-3.12618e-07
4.17018e-07
-4.23753e-09
-1.40026e-08
2.90362e-09
-1.08149e-11
-6.94701e-11
1.13197e-11
-5.7235e-13
-1.47806e-13
5.81343e-14
-8.84854e-15
-2.27818e-16
4.39082e-16
-5.96361e-17
-3.11814e-18
2.78827e-18
-4.3024e-19
-8.77903e-20
2.07784e-20
-1.97909e-36
1.55778e-20
-4.01176e-20
1.06903e-17
8.45755e-17
1.70009e-16
1.41484e-15
1.03414e-13
5.45012e-13
-2.53608e-11
-2.80907e-10
-9.62026e-10
8.05604e-09
2.06625e-08
-1.2574e-08
-1.62869e-06
-3.24079e-06
2.71455e-05
-0.000111179
0.000212164
-2.96664e-05
0.00193875
-0.0082996
-0.0153259
0.0480888
0.185588
1
1
1
1
1
1
1
1
1
1
1
1
1
1
1
1
1
1
1
1
1
1
1
1
1
1
1
1
1
1
1
1
1
1
1
1
1
1
1
1
1
1
1
1
1
1
0.999993
0.999995
0.999998
0.999996
1.00001
1.00001
1.00002
1.00002
0.999993
1.00001
0.999985
0.999996
0.999925
0.999941
0.999836
0.99985
0.999959
0.999907
1.00051
1.00034
1.00137
1.00111
1.00178
1.00164
1.00059
1.00096
0.996033
0.997497
0.985187
0.988555
0.966274
0.972482
0.938422
0.948494
0.900884
0.914583
0.853556
0.869975
0.789531
0.809645
0.712087
0.734346
0.613269
0.641142
0.517312
0.544798
0.420246
0.443207
0.300317
0.201826
0.317323
9.09459e-21
0.11167
0.0134562
-0.00159039
6.86186e-05
7.16026e-06
1.01484e-07
1.83366e-07
-3.61297e-08
7.26632e-10
1.14104e-09
-1.8568e-10
2.09011e-12
3.6261e-12
-7.49114e-13
8.3342e-14
6.00834e-15
-4.68069e-15
8.55119e-16
4.18458e-17
-3.22562e-17
4.66453e-18
3.60905e-19
-3.07055e-19
1.12095e-20
-0.000922382
1.38103e-20
0.128595
-1.85332e-20
-2.03856e-18
-1.62338e-17
-5.07209e-16
3.20419e-15
-3.38923e-14
-4.31075e-13
4.53538e-12
7.93e-11
7.62182e-10
-7.29155e-10
-2.50379e-08
3.45039e-08
1.39623e-07
3.99367e-06
-9.77957e-06
3.36513e-05
-0.000123301
0.000208255
0.000338935
-0.000630325
-0.0161638
0.0176478
0.000131136
0.0664675
1.98391e-06
0.457247
0.0001441
3.03963e-05
6.54724e-07
5.36432e-07
-9.96369e-08
6.91206e-10
3.44624e-09
-4.95706e-10
-5.16968e-12
1.10817e-11
-2.05396e-12
1.95271e-13
2.15947e-14
-1.31855e-14
2.20605e-15
1.56042e-16
-9.4501e-17
1.23867e-17
1.05606e-18
-9.49016e-19
2.6583e-20
3.4926e-20
-7.93434e-19
-4.11806e-18
-3.10586e-16
2.0697e-15
-3.64582e-14
-4.03659e-13
2.7631e-12
4.48504e-11
5.02184e-10
-1.26972e-10
-1.72328e-08
3.29272e-08
2.42186e-08
2.5726e-06
-5.51281e-06
2.07623e-05
-9.83038e-05
0.00020782
0.000526488
-0.00155706
-0.0158453
0.0201032
-8.00239e-21
1.14995e-06
4.36532e-09
-4.1844e-08
7.5154e-09
1.18591e-10
-2.15214e-10
2.84311e-11
-1.00216e-12
-4.72114e-13
1.57978e-13
-2.28388e-14
-9.70085e-16
1.32352e-15
-1.55987e-16
-1.09269e-17
7.85213e-18
-1.26667e-18
-2.78924e-19
6.38349e-20
5.93757e-18
2.31968e-17
1.10872e-16
3.32004e-15
1.03151e-13
7.29925e-13
-1.66579e-11
-1.68657e-10
-6.92896e-10
4.5006e-09
1.5617e-08
-1.55408e-08
-9.93466e-07
-2.43734e-06
2.23813e-05
-9.25334e-05
0.000163124
0.000108379
0.00144802
-0.00911867
-0.0114192
0.0561079
-0.0055644
-0.00532448
-1.41888e-19
0.596807
-0.00118086
0.957427
1.0026
0.985737
1.00456
1.0082
1.00136
1.00401
0.999967
1.00053
0.999869
0.999794
0.999989
0.999958
1.00002
1.00005
1.00001
1.00003
1
1.00001
0.999998
0.999998
0.999999
0.999998
1
1
1
1
1
1
1
1
1
1
1
1
1
1
1
1
1
1
1
1
1
1
1
1
1
1
1
1
1
1
1
1
1
1
1
1
1
1
1
1
1
1
1
1
1
1
1
1
1
1
1
1
1
1
1
1
1
1
1
1
1
1
1
1
1
1
1
1
1
1
1
-2.62504e-19
0.00151943
6.23973e-05
0.260823
-5.70122e-06
5.2064e-08
2.91934e-07
-5.98092e-08
1.72153e-09
1.47094e-09
-2.64935e-10
1.50004e-11
3.67951e-12
-1.23373e-12
1.81613e-13
3.00324e-15
-8.40211e-15
1.34127e-15
3.14933e-17
-5.23412e-17
9.23891e-18
7.71231e-19
-6.21845e-19
-2.90257e-20
8.57445e-18
-0.00316853
-0.00458952
-0.0032785
8.11395e-21
0.183072
0.270121
-3.68932e-06
-8.98206e-06
-1.32075e-06
0.532986
3.52596e-18
6.13194e-16
-9.99387e-16
9.64114e-14
1.43554e-12
-1.85583e-11
-2.11642e-10
-1.25758e-09
4.66834e-09
3.60003e-08
-3.60877e-08
-1.14828e-06
-5.64068e-06
3.70898e-05
-0.000152708
0.00030189
0.000163211
0.00156084
-0.0148225
-0.00431667
0.0797343
0.155462
0.0517236
0.189634
0.0225263
-9.55505e-05
-0.000690296
4.39733e-05
1.58816e-05
-6.93586e-06
1
1
1
1
1
1
1
1
1
1
1
1
1
1
1
1
1
1
1
1
1
1
1
1
1
1
1
1
1
1
1
1
1
1
1
1
1
1
1
1
1
1
1
1
0.999994
0.999995
1
0.999996
1.00001
1.00001
1.00001
1.00001
0.999997
1.00001
0.999996
1.00001
0.999917
0.999942
0.999822
0.999821
0.999984
0.999873
1.00057
1.00031
1.0014
1.00113
1.00163
1.00171
1.00029
1.00126
0.995565
0.998178
0.984607
0.990123
0.9665
0.975586
0.941095
0.954137
0.905793
0.923981
0.85739
0.879406
0.790478
0.816961
0.709217
0.738535
0.611267
0.644044
0.523447
0.56102
0.780431
-1.48154e-20
0.830481
-2.58159e-19
-5.34363e-13
-4.51632e-13
4.15287e-05
-3.60108e-19
-4.16309e-20
1.26632e-12
7.6824e-07
-1.96667e-08
-2.12186e-08
4.30593e-09
-1.12823e-10
-7.85279e-11
1.78155e-11
-1.74032e-12
-1.27174e-13
9.61657e-14
-1.68489e-14
-4.38781e-16
6.63966e-16
-1.04461e-16
-3.06582e-18
5.34662e-18
-7.1888e-19
-2.03928e-19
6.91722e-18
-4.39867e-14
-3.57804e-14
-3.71409e-16
-4.36257e-16
-8.77559e-18
1.7139e-16
-1.06857e-18
3.05309e-15
1.21726e-13
1.42716e-06
1.91715e-12
5.4236e-11
7.17866e-10
6.80035e-10
-2.41572e-08
3.25215e-08
-5.69902e-08
3.99364e-06
-3.00778e-06
3.57115e-06
-6.31034e-05
0.000212076
0.00092356
-0.0044994
-0.0191906
0.0497517
-1.15585e-07
2.94439e-13
-2.82363e-12
-7.99077e-19
1.31399e-11
0.41499
-2.52654e-12
-0.00591762
-0.0138241
0.00151948
0.000223625
0.000235145
-0.000129852
3.12232e-05
-3.91441e-06
-1.12925e-06
-2.98659e-08
2.58059e-08
4.62257e-09
-1.47826e-19
-1.50041e-18
3.41083e-18
1.60409e-17
-1.32725e-16
3.08772e-16
2.16638e-15
-2.17316e-14
3.88357e-14
0.0498203
-0.0196966
-0.00361142
0.000854687
0.000248666
-9.56182e-05
1.46518e-05
-4.74172e-06
3.30919e-06
4.18745e-09
3.85517e-08
-2.08848e-08
2.5061e-10
6.20501e-10
5.48314e-11
2.89819e-15
-6.53752e-19
-1.09794e-18
1.35986e-17
-2.42821e-17
-1.78589e-16
1.68318e-15
-4.19408e-15
-3.08272e-14
2.40976e-13
-6.69758e-13
-1.94296e-12
3.71244e-11
-2.36791e-10
3.89272e-10
8.41331e-09
-6.17558e-08
7.19385e-08
2.62168e-12
-4.9991e-10
4.34426e-09
-5.18538e-09
8.47417e-07
8.25507e-18
-9.65512e-10
3.44673e-15
-1.98328e-10
-1.86625e-11
8.0514e-05
-5.10483e-13
0.994132
1.00615
1.00363
1.00319
1.00652
1.00017
1.00137
0.999567
0.999319
0.99981
0.999466
0.999986
0.999885
1.00002
1.00003
1.00001
1.00003
1
1
0.999999
0.999998
0.999999
0.999998
1
1
1
1
1
1
1
1
1
1
1
1
1
1
1
1
1
1
1
1
1
1
1
1
1
1
1
1
1
1
1
1
1
1
1
1
1
1
1
1
1
1
1
1
1
1
1
1
1
1
1
1
1
1
1
1
1
1
1
1
1
1
1
1
1
1
1
-4.30831e-14
3.09203e-11
-1.46802e-09
0.462956
-4.10376e-17
3.70208e-13
-1.2585e-12
8.40353e-07
5.41114e-07
1.6514e-06
-5.1545e-08
-1.60372e-08
4.05651e-09
0.00969456
-3.57827e-10
0.331976
-4.12359e-11
3.72618e-11
2.22039e-19
1.17051e-12
-2.74928e-12
-4.2057e-12
-3.34712e-12
0.0957161
2.38929e-13
-1.06091e-15
-7.28887e-15
1.61581e-15
-3.13363e-17
-5.269e-17
1.33928e-17
1.64003e-18
-3.64602e-06
-7.59847e-07
8.31778e-10
-2.14231e-10
-4.78129e-18
-2.34542e-17
2.02821e-12
1.79388e-12
1.54494e-12
8.12195e-16
-1.80637e-10
1.01188e-13
1.16443e-13
-5.98358e-13
-3.89039e-16
3.15448e-16
0.000171361
0.000193265
5.28558e-11
-1.79026e-10
-1.53392e-15
-4.76546e-14
7.22255e-10
6.38312e-10
-1.14009e-09
2.42062e-09
5.01043e-08
-6.26084e-08
-8.91329e-07
-7.33671e-06
4.18498e-05
-0.000180131
0.00037118
0.000405539
0.000641228
-0.0196709
-0.0199771
0.00107955
2.42673e-07
2.55145e-08
1
1
1
1
1
1
1
1
1
1
1
1
1
1
1
1
1
1
1
1
1
1
1
1
1
1
1
1
1
1
1
1
1
1
1
1
1
1
1
1
1
1
0.999995
0.999996
1
0.999997
1.00001
1.00001
1.00001
1.00001
1
1.00001
1.00001
1.00002
0.999911
0.999941
0.999812
0.999817
0.999977
0.999864
1.00053
1.00029
1.00129
1.00104
1.00149
1.00157
1.0004
1.00126
0.996123
0.998446
0.986365
0.991562
0.971058
0.979386
0.94916
0.961858
0.916961
0.934355
0.868322
0.890678
0.795713
0.823343
0.708003
0.733338
0.611206
0.64027
-2.70206e-10
-5.99168e-10
-1.79507e-10
0.206341
0.308381
-3.61063e-16
-3.85112e-19
4.36963e-11
1.77432e-11
-0.00209076
-4.13561e-19
0.92558
7.76872e-07
0.456193
-4.69515e-19
-5.00485e-13
1.14798e-14
0.0765873
3.10814e-09
-1.24357e-07
-6.16001e-08
-5.54531e-08
3.90168e-09
9.32514e-12
4.45482e-13
1.01048e-13
-1.89031e-14
5.58636e-16
6.06772e-16
-1.26301e-16
2.24532e-18
7.26899e-18
7.77741e-18
0.00947254
0.18901
-1.09001e-05
-1.1325e-05
8.46785e-10
1.4429e-09
0.959572
3.34047e-15
-1.76762e-11
3.56401e-08
2.67803e-08
-2.38048e-08
-4.79487e-08
-2.18204e-08
-1.19058e-07
4.10104e-06
2.22756e-06
-2.20496e-05
-1.01084e-05
0.000236904
0.00129633
-0.00838972
-0.0213155
0.0767339
0.0425133
0.532095
2.42802e-17
8.82705e-07
2.95549e-05
-1.961e-05
-0.0186031
0.000945746
0.000425525
0.000305356
-0.000160208
3.69495e-05
4.46715e-18
6.04065e-18
-0.0070516
0.00120706
0.000292486
-0.00337853
0.000562474
-0.00375685
-6.40454e-05
0.684452
-3.3971e-06
-9.12093e-07
3.63189e-06
1.88254e-17
-1.82053e-17
-2.18811e-16
1.69996e-15
-2.36276e-15
-3.20212e-14
-1.45611e-09
-6.64481e-19
-0.000220651
-0.000990867
0.000205258
3.53921e-15
0.78693
-9.87405e-19
2.76606e-13
-1.41502e-16
2.14781e-16
-1.86713e-19
2.93774e-15
8.09408e-09
-2.07923e-14
4.50876e-14
6.73576e-18
2.90393e-09
-6.18053e-08
4.98021e-11
2.35943e-15
-1.82888e-11
3.72706e-08
-5.39357e-06
-1.02815e-06
0.322933
-6.14619e-12
1.0091
1.00853
1.01706
1.00223
1.00742
0.999796
1.00081
0.999654
0.999394
0.999897
0.999686
1.00001
0.999964
1.00002
1.00003
1.00001
1.00002
0.999999
1
0.999999
0.999998
1
0.999999
1
1
1
1
1
1
1
1
1
1
1
1
1
1
1
1
1
1
1
1
1
1
1
1
1
1
1
1
1
1
1
1
1
1
1
1
1
1
1
1
1
1
1
1
1
1
1
1
1
1
1
1
1
1
1
1
1
1
1
1
1
1
1
-2.37685e-06
5.83919e-19
-1.6923e-07
-5.74197e-17
6.26686e-08
3.83226e-15
-6.88541e-08
-1.2084e-14
0.39515
1.51046e-17
-2.31884e-10
-1.20098e-10
-3.12704e-10
-1.18135e-12
5.96837e-05
-1.04867e-16
0.122445
7.90702e-18
2.37155e-13
7.86546e-14
1.95312e-14
-5.80193e-09
1.22089e-15
4.35003e-16
5.39185e-17
-1.49066e-16
-1.63497e-16
-0.0132426
1.99567e-09
2.76737e-10
3.34556e-09
0.25146
-7.99063e-17
-1.60587e-11
0.000166277
-1.54301e-10
-4.86534e-14
-3.15066e-12
-3.44734e-12
0.873027
-8.22405e-06
-9.59923e-08
-1.28043e-07
0.211792
3.9307e-18
2.47719e-17
4.06679e-06
-6.3241e-06
-2.82834e-18
8.50581e-18
-6.90613e-17
4.25324e-05
-0.000197307
-6.32678e-06
0.000307682
0.00140572
-0.00109389
-0.0115964
-0.0167728
7.49262e-07
1.0695e-15
4.23126e-15
1
1
1
1
1
1
1
1
1
1
1
1
1
1
1
1
1
1
1
1
1
1
1
1
1
1
1
1
1
1
1
1
1
1
1
1
1
1
1
1
0.999996
0.999997
0.999999
0.999997
1.00001
1
1.00001
1.00001
1.00001
1.00001
1.00002
1.00003
0.999906
0.999944
0.999811
0.999821
0.999975
0.999869
1.00049
1.00026
1.00117
1.0009
1.00133
1.00134
1.00049
1.00115
0.996648
0.998842
0.988506
0.993087
0.976691
0.984253
0.958779
0.970626
0.928745
0.945849
0.878535
0.901561
0.79969
0.830626
0.699488
0.729642
0.588838
0.609746
-2.17886e-08
-2.00894e-08
4.8746e-08
0.0268587
0.0193126
0.0995213
-5.33782e-05
-0.000182566
-1.06098e-05
-9.1272e-06
-5.47544e-15
-8.46469e-16
-0.0242012
-0.0191872
-2.98892e-16
-3.14771e-16
5.62119e-16
6.18057e-09
6.51499e-09
7.9833e-09
1.3965e-07
6.02422e-07
-2.46419e-08
7.77964e-14
-4.72238e-13
4.00104e-13
7.61829e-18
-2.33934e-17
0.000386236
0.000200572
9.16649e-07
0.385374
2.93911e-15
1.52543e-15
0.553329
2.42442e-13
-3.18157e-05
3.86869e-11
0.205506
-2.83163e-16
5.76254e-11
9.11659e-18
-4.75352e-08
-0.0234899
-1.87397e-14
-1.04024e-07
1.41547e-15
1.57948e-06
4.36034e-11
1.5132e-11
-3.2166e-08
-1.81569e-14
0.527926
1.45869e-07
-3.56997e-14
2.03172e-09
2.65322e-10
-8.35045e-06
-1.99214e-05
-1.20553e-12
-1.56802e-11
0.97501
4.86773e-11
0.658389
-1.46891e-10
-3.95556e-15
1.87277e-16
1.10235e-08
-1.60872e-09
1.35629e-09
2.48329e-08
0.739487
-7.54098e-08
-0.000672196
1.00093
-7.0005e-07
8.68622e-06
0.0211096
0.000441082
0.00071509
-4.87144e-10
-6.21888e-10
-5.91318e-10
2.44209e-12
-1.56626e-13
3.63118e-06
2.18168e-17
-5.1505e-13
2.19031e-12
4.85067e-06
-0.00115442
-0.000199005
-9.54833e-13
-5.36153e-12
-0.00506771
-0.00383963
6.40499e-10
6.97127e-10
-8.28811e-07
0.91765
4.3207e-11
-5.14481e-14
0.00136486
0.000370232
3.89795e-05
0.000382211
0.000720273
-5.2974e-14
-8.0903e-06
-4.89651e-07
1.00927
1.00429
1.00996
1.0005
1.00288
0.999622
0.999815
0.999768
0.999512
0.999959
0.999821
1.00002
1
1.00001
1.00003
1
1.00001
0.999999
0.999999
0.999999
0.999998
1
0.999999
1
1
1
1
1
1
1
1
1
1
1
1
1
1
1
1
1
1
1
1
1
1
1
1
1
1
1
1
1
1
1
1
1
1
1
1
1
1
1
1
1
1
1
1
1
1
1
1
1
1
1
1
1
1
1
1
0.705216
0.444468
-3.12105e-15
-3.42531e-09
1.38812e-15
2.12399e-13
-1.96812e-14
0.256878
0.378422
1.66079e-05
4.48037e-11
-8.64897e-08
-1.5988e-10
-1.84515e-16
-0.0277136
-9.39109e-05
6.13081e-09
-1.1517e-07
0.323259
-1.82415e-16
-3.61486e-16
-1.33855e-08
0.00106851
2.28335e-13
4.39172e-13
3.02829e-16
-1.16954e-16
0.00053085
-5.19572e-10
-4.97809e-10
1.75391e-15
2.98215e-15
1.03823e-13
-7.89899e-15
-5.48391e-14
-0.00403509
-0.0092957
0.00117501
-9.45711e-19
-6.2755e-17
-1.93469e-16
-4.56613e-17
-8.61709e-06
1.12071e-05
0.000154792
0.000473827
0.0676589
4.01088e-06
-7.06538e-06
1.01443e-13
-0.00541554
0.000585025
-5.19678e-13
0.0712045
0.0315684
0.109768
0.000430482
0.00104088
0.882953
0.720368
-0.000204247
6.55917e-05
4.61071e-14
-3.3944e-15
1
1
1
1
1
1
1
1
1
1
1
1
1
1
1
1
1
1
1
1
1
1
1
1
1
1
1
1
1
1
1
1
1
1
1
1
1
0.999997
0.999998
0.999999
0.999997
1
1
1
1
1.00001
1.00001
1.00002
1.00003
0.999907
0.999951
0.999823
0.999838
0.999981
0.999887
1.00043
1.00022
1.00098
1.00072
1.00105
1.001
1.00043
1.00094
0.997234
0.99911
0.991231
0.995131
0.983284
0.989928
0.969238
0.979981
0.94116
0.95821
0.888962
0.914632
0.805191
0.840077
0.693741
0.735735
0.553106
5.27704e-05
0.000174644
1.24349e-05
-1.54547e-05
-1.96931e-05
4.37108e-15
-2.76536e-15
-1.6331e-14
-1.30807e-14
-0.0192892
-0.0276089
-2.15389e-07
-7.0444e-07
-2.37841e-12
-0.000201019
5.54876e-12
1.79396e-13
2.09145e-09
-2.06645e-16
-0.0169675
0.0568396
1.14146e-15
-0.0110106
-0.00772794
-3.63117e-13
0.600828
0.170346
0.419684
3.86863e-05
3.81206e-05
0.18927
9.6351e-16
-3.94329e-11
2.64745e-11
-6.60952e-05
4.95304e-07
2.64227e-07
2.39066e-09
-1.77515e-09
0.00125922
0.00115318
-1.04505e-07
-1.29781e-07
-3.52836e-12
1.66211e-05
-1.37105e-05
0.000495692
-1.38092e-11
-1.55906e-11
3.84041e-11
-5.9107e-07
-1.7744e-08
-1.77168e-08
-3.46419e-14
-1.2502e-10
-1.24519e-09
-2.50874e-10
-9.13121e-10
1.00726
0.992244
-6.21029e-18
9.10598e-14
3.60389e-06
-1.26324e-16
-1.16442e-16
-2.62166e-16
0.239597
-0.00300621
-5.03945e-06
8.45644e-14
-3.45435e-08
-9.43398e-08
-1.41789e-08
1
1
7.54279e-08
6.07821e-08
1.00546e-08
-1.33532e-10
1.07567e-06
1.14924e-06
1.21499e-06
-0.000322716
2.82651e-12
2.61756e-12
-2.03638e-12
-6.91033e-13
-2.04568e-14
-0.00857214
-0.00301171
-0.00762379
-0.00187655
1.08185e-11
2.16701e-12
-4.41727e-13
1.397e-15
8.2518e-16
4.84477e-15
1.06859e-08
6.70595e-09
-1.7479e-07
-0.0147652
6.17405e-10
6.91088e-10
0.926392
0.0472518
-1.9996e-13
0.000609363
1.00652
1.0016
1.0051
0.999788
1.00058
0.99964
0.999493
0.999871
0.999658
1
0.999934
1.00002
1.00003
1.00001
1.00002
1
1
0.999999
0.999998
0.999999
0.999998
1
1
1
1
1
1
1
1
1
1
1
1
1
1
1
1
1
1
1
1
1
1
1
1
1
1
1
1
1
1
1
1
1
1
1
1
1
1
1
1
1
1
1
1
1
1
1
1
1
1
1
1
1
1
1
0.461913
1
-6.69971e-06
2.61246e-05
-0.0252778
0.16663
2.29274e-15
0.000219425
1.35333e-14
-2.86616e-12
-5.50944e-14
2.35034e-05
2.777e-05
0.441637
-1.25939e-14
9.25585e-14
6.86375e-14
-2.24337e-13
-5.15563e-10
-0.0080929
-0.0229169
-2.5905e-13
2.8175e-07
-1.04585e-10
0.00386688
3.80467e-11
6.95667e-11
3.57691e-11
2.65226e-16
0.000193266
0.000256987
0.480209
1.42458e-15
1.16043e-15
0.980044
-8.83842e-16
2.69762e-15
-2.28936e-07
0.145562
-1.63431e-09
-1.29867e-09
1.66324e-09
-5.48397e-12
-2.49046e-12
0.380168
0.246873
4.66862e-12
-1.57901e-07
-2.11634e-07
1
1.0092
1.01154
1.00152
3.62898e-06
-8.48255e-06
1.77048e-05
0.000626616
0.000674523
0.811422
0.898621
0.516607
0.00133453
0.000409782
2.31029e-09
6.74488e-09
7.8741e-10
0.000269166
0.00058348
1.6252e-13
1.06604e-13
1
1
1
1
1
1
1
1
1
1
1
1
1
1
1
1
1
1
1
1
1
1
1
1
1
1
1
1
1
1
1
1
1
0.999998
0.999999
0.999999
0.999998
1
1
1
1
1.00001
1.00001
1.00003
1.00003
0.999913
0.999958
0.999858
0.999876
1
0.99993
1.00036
1.00018
1.00071
1.00048
1.00064
1.00054
1.00022
1.0005
0.997861
0.999255
0.99443
0.997612
0.990719
0.996049
0.980121
0.989701
0.952956
0.96907
0.90144
0.92556
0.817461
0.85444
0.701488
0.750711
0.430502
0.379452
0.553271
-1.25421e-14
-5.42189e-14
-2.30722e-14
-3.06014e-14
-0.0285386
-0.00447372
-2.96599e-07
3.22451e-06
-0.000191906
0.000173247
-1.68752e-08
3.34003e-15
-2.20234e-05
-1.43011e-05
-2.59653e-12
-3.40112e-12
-0.00673547
-0.000103069
-0.000133344
-8.73565e-10
-4.17841e-10
-0.0297086
3.01998e-11
2.29177e-11
-2.66128e-14
-2.20223e-12
-1.58389e-12
-8.08551e-15
0.227186
-1.52531e-16
-2.30385e-16
-4.55471e-07
8.02064e-05
3.26367e-05
1.05772e-06
9.21169e-07
-5.81522e-09
-0.00126084
0.0933593
3.78506e-11
-9.00026e-11
0.0727253
0.204496
2.80182e-13
-7.04307e-06
0.00132601
1.25222e-09
-7.77186e-11
1.70412e-15
-7.88671e-17
1.19115e-15
-7.69649e-08
-6.57632e-08
1
-1.25404e-11
3.29844e-11
0.0898452
0.017623
-4.33199e-08
-1.32996e-07
0.609802
0.000143365
0.000315527
9.11758e-05
-5.80673e-12
-1.35904e-11
2.83269e-12
2.52954e-12
-3.83134e-12
-0.00493101
-0.00382035
5.48342e-10
5.94984e-10
3.66847e-08
-7.36871e-08
4.16241e-15
4.73807e-15
-7.52425e-15
-1.27377e-05
-4.04009e-06
-0.00019609
2.58898e-13
-1.1728e-08
-9.56485e-09
3.71518e-13
4.77054e-16
-1.33987e-12
1.00315
1.00032
1.00206
0.999611
0.999788
0.999759
0.999524
0.999949
0.99981
1.00002
0.999991
1.00002
1.00003
1
1.00001
0.999999
1
0.999999
0.999998
1
0.999999
1
1
1
1
1
1
1
1
1
1
1
1
1
1
1
1
1
1
1
1
1
1
1
1
1
1
1
1
1
1
1
1
1
1
1
1
1
1
1
1
1
1
1
1
1
1
1
1
-5.20602e-14
0.000754893
-2.17178e-14
1.08861e-13
2.09627e-05
0.455687
-2.29445e-07
-0.0313054
-0.000178718
-0.000373861
0.000169748
0.132389
0.570083
0.288258
0.25517
0.415531
-9.14375e-15
-5.06866e-15
-0.00174186
-8.0018e-06
0.00144094
-0.00100925
0.000831225
0.00144175
-1.83751e-16
1
2.76719e-13
2.99743e-13
1
1
1
1
1
1
1
1
1
1
1
1
1
1
1
1
1
1
1
1
1
1
1
1
1
1
1
1
1
1
0.999998
0.999999
0.999999
0.999999
0.999999
0.999999
1
0.999998
1.00001
1.00001
1.00003
1.00003
0.999925
0.999965
0.999911
0.999926
1.00004
0.999991
1.00027
1.00014
1.00037
1.00019
1.0001
0.999983
0.999895
0.999996
0.998574
0.999547
0.998315
1.00038
0.998603
1.00261
0.99043
0.99833
0.963372
0.977222
0.909528
0.929717
0.832135
0.863932
0.722497
0.637294
0.77476
8.39073e-08
-1.24692e-08
8.5867e-07
-8.22708e-07
1.87897e-06
-2.52737e-15
-3.1118e-14
0.0221705
0.106591
3.30315e-06
-6.78752e-06
-0.00742323
-0.00937783
0.000421435
0.00071504
-0.0136715
-0.0289589
-3.47282e-10
6.30562e-09
3.55904e-06
-0.000146464
-1.854e-16
-3.32125e-16
-1.84316e-16
0.800147
-4.98021e-12
1.00668
7.64925e-14
1.05779e-13
1
1.00742
1.0082
-3.295e-10
-7.62336e-11
-0.0116582
6.98808e-08
1
4.42127e-11
-2.47426e-14
-5.66855e-08
-3.36688e-12
-3.73311e-12
0.000882305
1
1.01123
5.3229e-11
2.07785e-11
-0.00306925
-6.58663e-11
-4.17141e-09
0.000170291
0.000111068
1.32779e-06
5.62723e-10
-9.50684e-12
2.34014e-05
2.97203e-05
2.74111e-15
-0.00162016
-5.14302e-11
5.32645e-10
-2.32193e-07
-2.49433e-08
7.14089e-14
3.72841e-15
2.05326e-17
-0.0264642
2.03562e-15
4.06523e-09
-1.52902e-07
0.967021
0.990011
0.880757
-8.80609e-08
-1.222e-07
-6.3686e-13
0.406815
0.52581
0.186207
5.84226e-09
4.91979e-09
2.35598e-09
4.23962e-13
3.78614e-11
3.08722e-11
-5.05354e-11
-1.81272e-07
-2.29033e-07
5.82618e-14
-1.33108e-05
-1.8578e-05
2.56272e-12
0.000257582
0.000234589
3.16496e-06
4.27039e-11
6.53774e-11
-0.0291741
-1.33032e-09
-1.68898e-09
-0.00714446
-0.00703087
-0.000146105
-1.87121e-14
-5.34514e-14
2.68718e-09
3.37395e-10
3.22319e-15
4.01707e-15
-1.31357e-14
1.19756e-05
-7.65848e-09
-3.64446e-09
1.81112e-06
8.25549e-07
-0.000170461
3.94086e-15
0.00905461
0.000301447
0.00101189
6.36977e-13
1.24501e-11
-4.30991e-12
1.00543
7.55077e-08
8.82486e-08
1.00132
1.00409
0.999727
1.00042
0.999636
0.999493
0.999871
0.999672
1
0.999931
1.00002
1.00002
1.00001
1.00002
1
1.00001
0.999999
0.999999
0.999999
0.999999
1
1
1
1
1
1
1
1
1
1
1
1
1
1
1
1
1
1
1
1
1
1
1
1
1
1
1
1
1
1
1
1
1
1
1
1
1
1
1
1
1
1
1
1
1
1
1
2.15547e-13
0.000598221
1.00185
-1.87044e-14
-0.00479188
0.000429476
2.34072e-12
-1.30213e-09
-1.72571e-09
1.63075e-15
8.78579e-16
-7.4089e-13
-1.26211e-13
-7.98246e-08
-1.57552e-07
2.99015e-07
1.79857e-15
3.27413e-05
-6.04131e-05
0.000474646
0.0477369
-4.32978e-14
-8.36888e-15
-6.22285e-15
1.42802e-15
1.15719e-07
6.26656e-07
-5.3477e-08
5.84015e-14
6.99723e-15
1.64867e-09
0.0010772
-0.00366219
-0.0187291
0.0339402
1
1
-5.64276e-12
-8.05807e-12
1
1
1
1
1
1
1
1
1
1
1
1
1
1
1
1
1
1
1
1
1
1
1
1
1
1
1
1
0.999999
1
1
1
0.999998
0.999999
0.999998
0.999996
1.00001
1
1.00002
1.00002
0.999938
0.999972
0.999981
0.999991
1.00009
1.00006
1.00016
1.00008
0.999961
0.999847
0.999481
0.99936
0.999586
0.999537
0.999578
1.00016
1.00263
1.00411
1.00602
1.00912
0.997826
1.00501
0.966469
0.979353
0.905694
0.922298
0.827263
0.839107
-2.88747e-12
-2.60201e-12
-6.38721e-06
2.68689e-05
-0.00509821
-0.00953309
0.000881759
0.00106512
-0.0359395
-0.023162
1.17349e-08
-0.000215251
-0.000108622
1.00993
1.0101
1.89239e-12
-4.03636e-08
8.67649e-08
-2.36885e-08
1.35837e-13
6.84995e-09
0.00086198
1.18903e-08
7.73253e-08
1.01004
0.759163
2.15119e-11
-2.59141e-12
-5.33605e-12
-0.00202113
2.13229e-09
1.58809e-09
-5.90451e-09
4.97761e-11
1.00785e-06
-4.1545e-08
-1.44021e-11
2.28045e-13
-0.000344297
-1.90552e-07
8.12835e-08
-1.65877e-09
6.9318e-16
2.43859e-07
4.18705e-13
-2.18242e-14
0.97733
0.948336
-0.0200733
0.415644
0.507786
0.612168
-1.11545e-11
-1.32934e-05
-2.79234e-05
0.150298
0.176724
1.82855e-13
1.22013e-13
1.77363e-12
0.0315322
-0.0340308
-0.000184023
4.94711e-10
-1.34592e-09
3.79357e-11
3.20178e-06
-3.75415e-14
9.84552e-09
0.00943255
0.775529
0.856433
0.520652
2.01541e-13
0.120649
7.47936e-09
-4.9794e-12
2.98028e-11
0.347368
0.319671
0.485612
0.000297382
0.000351134
-2.47024e-05
-1.10646e-05
-1.58731e-10
9.66933e-05
-4.45572e-14
9.44409e-14
-1.4174e-06
-0.0052235
0.00113223
-0.00840622
-0.00933471
-1.21128e-07
-9.10195e-08
-0.0177747
-5.96047e-10
-5.71617e-10
0.000307756
0.000276426
-6.22524e-09
-6.8135e-06
-3.43631e-06
-2.37187e-14
-5.07279e-06
3.05601e-06
2.1473e-09
9.99621e-09
-5.68098e-11
2.46548e-11
-7.69515e-08
-1.24436e-07
1.00836
-7.69329e-06
0.0010163
1.00287
1.00695
1.00006
1.00149
0.999541
0.999561
0.999767
0.999516
0.999963
0.999843
1.00002
1
1.00002
1.00003
1
1.00001
0.999999
1
0.999999
0.999998
1
0.999999
1
1
1
1
1
1
1
1
1
1
1
1
1
1
1
1
1
1
1
1
1
1
1
1
1
1
1
1
1
1
1
1
1
1
1
1
1
1
1
1
1
1
1
6.37506e-09
-0.0269275
0.203942
0.00017319
1.41894e-09
2.04294e-09
-1.94191e-14
-2.48319e-14
-2.03963e-12
1.73183e-06
1.27134e-06
3.36691e-06
1.56453e-13
-1.9306e-07
-2.11247e-07
-0.000233954
2.7318e-13
3.55346e-13
0.696792
-9.58801e-12
-7.16155e-12
-6.97266e-12
-2.55078e-11
-1.54229e-11
-2.63185e-14
-3.17969e-14
-4.81296e-10
6.9684e-09
2.4007e-09
-0.00903033
-0.0237759
0.0844815
4.1338e-05
-6.55776e-06
-6.67252e-05
-0.000209011
0.000796575
0.00100503
-2.56904e-14
-3.79724e-14
1
1
1
1
1
1
1
1
1
1
1
1
1
1
1
1
1
1
1
1
1
1
1
1
1
1
1
1
1
1
1
1
0.999998
0.999999
0.999996
0.999995
1
0.999998
1.00002
1.00002
0.999955
0.999981
1.00006
1.00006
1.00013
1.00011
1.00002
0.999996
0.99948
0.99945
0.998849
0.998779
0.999498
0.999309
1.0012
1.00131
1.00811
1.00839
1.01369
1.01553
1.00314
1.00896
0.96513
0.97902
0.890927
0.914415
0.786185
0.805445
-3.52587e-12
-4.75848e-12
-2.83915e-10
-7.05587e-10
-1.79622e-10
-0.00384498
-0.00122037
9.77845e-05
-0.00711504
3.3408e-05
-4.36085e-05
0.00343602
-0.00547394
0.00110987
0.00045056
-0.00376589
0.0655576
6.21272e-05
0.000651868
0.988895
-3.33703e-08
-9.40467e-08
-1.65406e-08
2.20296e-07
-1.86895e-05
-2.79407e-05
-1.88489e-05
0.00117053
-3.80336e-10
7.78838e-08
-1.33931e-05
-8.13882e-09
-6.67079e-09
6.34758e-09
3.34269e-12
-2.47471e-12
-5.05799e-10
-0.0367751
-0.0381167
1.82889e-07
0.141512
-0.00865425
6.50553e-07
3.12721e-06
1.01093
-4.61186e-14
0.693208
-1.43599e-12
-2.20243e-13
-3.10546e-06
-3.73998e-06
-1.7818e-07
-2.11655e-05
0.0278305
4.69762e-07
2.15248e-13
-1.19142e-07
-1.73071e-07
1.5984e-09
4.25116e-10
0.000255706
-0.000274372
0.000526558
9.21869e-13
-1.83609e-09
1.10485e-09
-5.13348e-10
-7.69815e-10
6.57808e-09
-1.40618e-08
2.45515e-10
1.74521e-14
6.57443e-11
3.89299e-11
1.06984e-11
3.58489e-11
2.17408e-12
-0.0116574
0.0440114
0.398475
0.201112
0.202141
0.233184
1.01332
0.000210731
1.70427e-13
4.0368e-11
1.14172e-13
-1.25679e-14
-0.0083109
-0.0137785
9.08011e-07
7.17813e-07
2.42801e-13
1.92618e-13
9.70609e-13
0.943215
0.905741
-8.22855e-12
-1.0708e-11
0.000357631
0.000429946
3.0307e-05
-1.07708e-05
-2.78e-06
1.00546
4.85138e-13
3.68348e-13
0.37905
0.417544
3.04204e-05
-2.99952e-10
-6.46471e-11
1.00554
1.00098
1.00383
0.999559
1.00004
0.999625
0.999374
0.99989
0.999693
1.00001
0.999959
1.00002
1.00003
1.00001
1.00002
1
1
0.999998
0.999998
0.999999
0.999998
1
1
1
1
1
1
1
1
1
1
1
1
1
1
1
1
1
1
1
1
1
1
1
1
1
1
1
1
1
1
1
1
1
1
1
1
1
1
1
1
1
-1.32338e-07
3.39849e-07
-0.00802306
-0.00320816
-1.52911e-09
-8.6282e-08
0.296659
0.000950936
1.29077e-06
-2.76133e-14
-3.04335e-14
1.23981e-13
0.960607
-3.23252e-12
-1.9091e-07
-1.8662e-07
-1.74895e-07
-1.36636e-06
2.78766e-05
1.34968e-13
0.108714
-7.15132e-09
-7.7845e-09
-1.07062e-12
-4.42599e-13
3.1159e-10
-1.50281e-09
1.17799e-12
3.27125e-11
9.64906e-10
-2.58227e-10
1.03642e-08
5.19575e-09
0.0208152
-0.0325342
0.722887
0.786149
0.474099
0.000161444
3.70051e-05
0.591089
-0.000223397
-8.37235e-10
0.00109205
0.00105478
1.01355e-14
5.02952e-15
1
1
1
1
1
1
1
1
1
1
1
1
1
1
1
1
1
1
1
1
1
1
1
1
1
1
1
1
1
1
0.999998
0.999999
0.999995
0.999994
0.999999
0.999994
1.00001
1.00001
0.999979
0.999998
1.00015
1.00014
1.00013
1.00013
0.999813
0.999832
0.998974
0.998995
0.998411
0.998342
0.999908
0.999604
1.00361
1.00347
1.01384
1.01337
1.01874
1.01999
1.00133
1.00646
0.95518
0.96459
0.880856
0.903818
-1.04347e-12
-4.65348e-12
-0.0344043
-0.0350491
0.011133
-0.0141285
-0.0293676
-0.000106447
-0.00021402
0.0222844
0.00242452
-0.0016675
-0.0117789
8.56129e-14
7.51049e-14
1.00759
0.987439
0.130671
0.268399
0.000970913
0.00110064
0.569823
1.14957e-06
-1.45897e-07
1.74421e-06
-5.58268e-10
7.2101e-08
-1.78144e-05
3.40989e-07
-2.52875e-05
-0.00104685
-3.16213e-12
0.000315915
1.56297e-11
0.443015
0.481043
2.41377e-08
5.65883e-08
-0.0097382
1.58156e-11
7.90323e-12
3.29957e-10
-1.99771e-05
0.138454
0.335944
0.0776274
-1.08906e-11
-4.3961e-08
4.21578e-11
1.36061e-11
-0.000273617
0.000249317
1.34598e-09
-2.80421e-12
1.99486e-13
1.01194
7.70584e-12
-6.72548e-10
0.872111
0.820733
0.111827
-7.78872e-05
2.72561e-11
1.98027e-11
1.01534
2.53222e-13
9.2778e-10
4.14342e-09
-1.19384e-10
0.00114671
-0.00828852
0.000220163
0.760067
-7.00526e-08
-1.29605e-07
-5.7254e-08
1.30088e-06
-2.47101e-13
1.92473e-13
-8.44794e-12
-6.32713e-06
-2.59244e-05
0.000262823
0.000466895
0.000827853
3.36952e-06
-1.41902e-06
1.35313e-06
5.48222e-07
-1.65674e-07
-2.22836e-07
3.78834e-13
0.000117393
-2.63004e-08
-1.18171e-09
-6.19405e-09
-6.7403e-09
1.01175
2.4394e-13
4.26141e-11
6.03018e-11
5.82498e-08
1.99081e-11
3.29047e-13
0.000102348
4.55678e-05
1.00272
0.999805
1.00106
0.999435
0.99927
0.999748
0.99943
0.999976
0.999851
1.00003
1.00002
1.00002
1.00004
1
1.00001
0.999998
1
0.999999
0.999997
1
0.999999
1
1
1
1
1
1
1
1
1
1
1
1
1
1
1
1
1
1
1
1
1
1
1
1
1
1
1
1
1
1
1
1
1
1
1
1
1
2.15655e-10
1.75401e-10
-0.00202083
-0.00453106
0.000272812
-0.0100082
-0.00525976
2.07566e-13
-1.94694e-05
-7.59312e-06
0.00114848
-2.15143e-13
3.09631e-13
-0.0366711
0.000425572
0.00102024
1.61406e-08
1.64038e-13
1.95436e-05
-2.00001e-12
-1.42097e-12
-1.90221e-09
-1.52464e-09
1.03432e-09
8.39093e-12
3.44408e-12
3.45889e-11
0.196764
0.655631
-3.44688e-12
-4.53411e-12
0.812933
0.992798
3.40053e-08
0.000361134
-0.00362508
1.0098e-06
3.2361e-06
1
1
1.01298
1.00739
1
1
1
1
1
1
1
1
1
1
1
1
1
1
1
1
1
1
1
1
1
1
1
1
1
1
0.999997
0.999998
0.999993
0.999993
0.999994
0.99999
1.00001
1.00001
1.00002
1.00003
1.00023
1.00021
1.00007
1.0001
0.999522
0.999591
0.998424
0.998517
0.998202
0.998116
1.00103
1.00055
1.00723
1.00656
1.02012
1.01891
1.0204
1.02193
0.990592
0.99684
0.92831
0.936129
5.47056e-12
-1.38813e-12
-0.000181449
0.000300671
0.0718793
0.0410178
-0.0202282
-0.0339501
0.00106433
0.000572167
2.06486e-13
1.00914
1.01584
-6.07011e-10
-2.39775e-10
1.3591e-13
2.30517e-08
2.72179e-13
1.33213e-07
-3.82779e-06
1.60542e-06
-0.0105195
1.00733
3.09876e-11
2.44605e-11
1.26664e-06
8.78484e-12
-0.0174372
0.000415984
-1.7788e-07
-1.66186e-07
0.558125
8.51019e-09
7.36367e-09
0.708988
-2.16775e-05
0.00111252
-0.0266801
-0.0236912
2.44637e-08
-0.000116477
-0.00014884
-1.07171e-07
1.83077e-09
-0.00116949
-0.000344827
0.608871
3.0022e-05
-8.83876e-06
0.0105287
-0.0047783
-9.88574e-08
4.16796e-11
4.33352e-11
3.09554e-09
8.017e-09
1.7312e-09
0.595367
0.642154
0.359034
1.3554e-09
-7.9934e-08
0.697398
0.778436
-0.00018776
1.72187e-11
0.849517
6.41831e-10
-1.15564e-07
0.059571
0.0461377
0.1767
7.16208e-12
6.6405e-11
-9.12405e-12
1.17303e-11
-9.92868e-13
-6.56551e-12
-2.97968e-08
-9.91686e-08
6.96013e-07
2.20821e-13
0.911601
0.382822
-2.13447e-07
-2.69355e-07
-3.29121e-05
0.000436691
3.14516e-08
1.97002e-05
3.04951e-07
-3.49461e-13
0.766558
-2.72645e-06
-1.72922e-08
0.946465
-3.66484e-09
-3.84377e-09
-8.41504e-08
-1.39814e-07
2.0398e-10