/*--------------------------------*- C++ -*----------------------------------*\
  =========                 |
  \\      /  F ield         | OpenFOAM: The Open Source CFD Toolbox
   \\    /   O peration     | Website:  https://openfoam.org
    \\  /    A nd           | Version:  7
     \\/     M anipulation  |
\*---------------------------------------------------------------------------*/
FoamFile
{
    version     2.0;
    format      ascii;
    class       volScalarField;
    location    "0.92";
    object      T;
}
// * * * * * * * * * * * * * * * * * * * * * * * * * * * * * * * * * * * * * //

dimensions      [0 0 0 1 0 0 0];

internalField   nonuniform List<scalar> 
46572
(
-2.70638e-48
-1.23219e-46
8.19562e-48
-7.53357e-46
2.6466e-47
-4.25076e-45
3.38565e-47
2.7924e-40
2.04042e-47
2.54948e-39
4.064e-48
7.41846e-39
0
1.10763e-38
9.50896e-41
8.49428e-39
2.09593e-39
1.28912e-38
3.3427e-38
9.75338e-38
2.4034e-37
4.00869e-37
1.35384e-36
3.2163e-37
6.79854e-36
-7.44003e-36
2.73497e-35
-6.7018e-35
9.4972e-35
-3.306e-34
2.85622e-34
-1.24872e-33
7.01729e-34
-4.04383e-33
1.62823e-33
-1.0879e-32
3.5324e-33
-3.01715e-32
5.87474e-33
-5.78482e-32
7.7937e-33
-8.89117e-32
8.98663e-33
-1.10036e-31
9.14321e-33
-1.17387e-31
8.97461e-33
-1.14552e-31
8.86499e-33
-1.09226e-31
9.14632e-33
-1.10159e-31
9.86255e-33
-1.16352e-31
1.0704e-32
-1.29257e-31
1.12329e-32
-1.3923e-31
1.07971e-32
-1.39903e-31
9.93832e-33
-1.29896e-31
9.05557e-33
-1.15219e-31
8.45468e-33
-1.08992e-31
8.01603e-33
-1.07566e-31
7.29423e-33
-9.76817e-32
6.31646e-33
-8.58463e-32
5.18155e-33
-7.56868e-32
3.70897e-33
-5.37991e-32
2.37651e-33
-3.54464e-32
1.32787e-33
-2.10656e-32
5.72603e-34
-9.34918e-33
2.03807e-34
-3.27638e-33
5.45452e-35
-7.00741e-34
1.17512e-35
-1.06503e-34
2.47675e-36
-1.58769e-35
3.39268e-37
4.09558e-37
2.10798e-38
7.32154e-37
0
7.75787e-38
0
0
0
0
0
0
0
0
0
0
0
0
0
0
0
0
0
0
0
0
0
0
0
0
0
0
0
0
0
0
0
0
0
0
0
0
0
0
0
0
0
0
0
0
0
0
0
0
0
0
0
0
0
0
0
0
0
0
0
0
0
0
0
0
0
0
0
0
0
0
0
0
0
0
0
0
0
0
0
0
0
0
0
0
0
0
0
0
0
0
0
0
0
0
0
0
0
0
0
0
0
0
0
0
0
0
0
0
0
0
0
0
0
0
0
0
0
0
0
0
0
0
0
0
0
0
0
0
0
0
0
0
0
0
0
0
0
0
0
0
0
0
0
0
0
0
0
1.02241e-152
9.09467e-153
6.76246e-139
1.06379e-138
2.17878e-133
7.97958e-134
3.28294e-130
6.08664e-130
2.32227e-125
2.89618e-125
7.54974e-121
-1.12068e-122
1.08775e-115
1.35926e-115
6.84054e-115
8.54874e-115
1.78882e-113
-8.11837e-113
2.17663e-113
-3.93432e-113
-3.78755e-112
4.12086e-113
-2.4061e-110
-4.01996e-111
-1.28014e-107
-1.51352e-107
-4.37439e-107
-5.39444e-107
-3.11621e-107
-4.31963e-107
-5.62447e-106
1.89503e-105
-2.25601e-104
-2.45837e-104
2.14303e-105
-1.21026e-103
3.37584e-101
4.06543e-101
8.74699e-100
-3.48977e-99
2.96818e-98
-1.45106e-98
6.59209e-97
-1.12781e-96
4.88924e-95
4.58229e-95
5.26395e-95
5.58532e-95
3.71127e-95
2.83879e-95
8.22952e-95
-5.35284e-95
5.95627e-93
6.50648e-93
3.82471e-93
4.06999e-93
6.443e-93
-1.1745e-92
3.0355e-92
1.35701e-92
3.82197e-92
3.12822e-92
3.3504e-92
2.33537e-92
3.14344e-92
-2.77582e-93
1.55962e-91
1.57339e-91
2.88489e-91
2.57496e-91
1.9917e-91
1.77001e-91
1.72269e-91
1.24551e-91
2.39765e-90
2.12874e-90
1.70508e-90
1.05924e-90
1.30008e-90
4.75169e-91
1.06484e-90
-3.01999e-92
8.57973e-91
-4.34551e-92
5.03397e-90
-3.42327e-90
5.47628e-90
-3.46077e-90
8.13766e-89
3.26736e-89
1.73509e-88
1.66483e-88
1.15277e-88
1.0714e-88
9.87517e-89
1.13267e-90
2.04242e-88
1.04734e-88
3.13048e-88
1.14853e-88
6.12876e-88
7.32341e-89
6.62064e-88
-3.00768e-88
3.3463e-87
2.95401e-87
2.24972e-87
1.94182e-87
1.66917e-87
7.16375e-88
2.19681e-87
1.78604e-87
1.54053e-87
1.1905e-87
1.2669e-87
2.19576e-88
5.49572e-87
5.23756e-87
3.64382e-87
3.35861e-87
2.8896e-87
7.73897e-88
4.2031e-87
2.07942e-87
4.30406e-87
3.18203e-87
3.40932e-87
2.19783e-87
2.85835e-87
7.12672e-88
6.15426e-87
5.90271e-87
5.09354e-87
5.41935e-88
5.4478e-87
2.65972e-87
3.89846e-87
1.87812e-87
2.82077e-87
1.42458e-87
2.24763e-87
2.89882e-88
3.12303e-87
1.24592e-87
6.87281e-87
5.65329e-87
9.98184e-87
7.29648e-87
7.1327e-87
4.99315e-87
5.08949e-87
3.18657e-87
7.55895e-87
2.59733e-87
1.018e-86
7.98338e-87
6.93569e-87
5.04119e-87
5.35824e-87
1.8203e-87
5.50059e-87
2.38076e-87
4.27811e-87
1.67767e-87
3.20187e-87
1.38918e-87
2.61507e-87
1.00333e-88
3.88969e-87
2.33915e-87
5.99031e-87
2.07302e-87
4.33412e-87
2.10625e-87
3.05039e-87
2.09252e-87
2.05275e-87
2.06783e-87
2.68798e-87
3.2591e-87
3.24257e-87
5.74225e-87
1.39077e-87
5.13488e-87
2.92236e-91
4.18933e-87
-1.0937e-87
3.91384e-87
-9.91621e-88
4.07294e-88
-1.2939e-88
-3.23638e-87
3.50485e-87
-9.90937e-87
3.98945e-87
-7.20995e-87
9.56492e-87
-1.711e-86
1.37041e-86
-1.93715e-86
1.45071e-86
-1.0965e-86
1.68716e-86
-1.8468e-86
2.06217e-86
-3.51344e-86
6.25409e-86
-6.2768e-86
6.70201e-86
-1.17315e-85
1.26496e-85
-2.38182e-85
2.10962e-85
-2.97821e-85
2.54466e-85
-2.56649e-85
2.74866e-85
-2.80488e-85
3.19354e-85
-3.37312e-85
3.52495e-85
-3.34624e-85
4.00206e-85
-3.53507e-85
4.00208e-85
-2.67087e-85
3.70222e-85
-1.80907e-85
3.41836e-85
-1.78728e-85
3.1259e-85
-1.57495e-85
2.93948e-85
-1.67067e-85
3.54755e-85
-3.7076e-85
4.23666e-85
-2.38563e-85
4.49306e-85
-3.2532e-85
4.23672e-85
-2.96331e-85
5.34296e-85
-3.80087e-85
5.93837e-85
-1.97676e-85
5.29939e-85
-3.24211e-85
5.7572e-85
-4.27086e-85
5.50719e-85
-3.24002e-85
5.89654e-85
-5.20915e-85
7.1508e-85
-7.59232e-85
8.73115e-85
-9.35731e-85
8.71437e-85
-8.5945e-85
9.21713e-85
-9.74475e-85
9.97228e-85
-1.04821e-84
1.0937e-84
-9.25464e-85
1.01291e-84
-6.74381e-85
1.13062e-84
-8.31254e-85
1.19107e-84
-7.11149e-85
1.11052e-84
-7.91451e-85
1.08314e-84
-6.68668e-85
1.02577e-84
-6.52328e-85
9.20894e-85
-5.87481e-85
8.38021e-85
-4.67975e-85
7.21745e-85
-1.74136e-85
5.15321e-85
-2.14225e-85
4.22888e-85
-1.74161e-85
3.42811e-85
-1.78549e-85
1.77536e-85
-1.2293e-85
1.34614e-85
-5.91564e-86
8.72653e-86
-9.33334e-87
-9.48909e-86
-1.05014e-85
-6.11521e-86
-4.62159e-86
-9.8669e-86
9.90781e-86
-1.42021e-85
9.91234e-86
-1.59051e-85
6.75509e-86
-1.51106e-85
7.79364e-86
-1.68209e-85
6.43138e-86
-1.86297e-85
-2.67844e-86
-1.63371e-85
3.02538e-86
-4.691e-85
7.94654e-86
7.90843e-84
1.09322e-83
1.52144e-82
-7.86922e-83
-1.71379e-81
1.02827e-81
1.27724e-80
8.12348e-81
-7.61199e-80
-3.25482e-80
-1.37288e-77
-1.42808e-78
6.36705e-77
6.0548e-77
-8.43024e-75
7.49983e-75
-4.24501e-73
-3.56968e-73
-1.90959e-72
7.97664e-73
-2.39658e-71
1.6542e-71
-1.49141e-70
-1.10525e-70
8.26753e-71
1.20417e-68
-1.62014e-67
-1.93528e-68
-7.27329e-66
2.21177e-66
-4.9989e-65
2.99252e-65
6.83938e-64
1.43246e-63
1.22023e-62
4.90992e-63
1.90605e-61
-0.000279539
-9.10299e-05
-6.41067e-06
-1.94273e-07
1.15489e-08
8.76641e-10
1.38055e-11
-3.16623e-13
-1.16085e-14
-1.1466e-16
-2.72029e-19
-7.04634e-21
2.58151e-22
2.1814e-24
-9.27403e-26
-4.1537e-28
3.7338e-30
1.46664e-32
-4.52295e-35
-4.90442e-37
3.21348e-39
5.08395e-42
-1.54287e-43
9.83098e-46
-2.65292e-48
-2.94821e-51
1.10424e-52
-1.58523e-54
1.65625e-56
-1.18143e-58
-0.000286023
2.50407e-12
4.9414e-11
9.11991e-11
3.41908e-13
-3.89392e-11
9.52061e-10
1.63444e-09
-3.02024e-09
-1.59211e-08
-1.01741e-08
5.3691e-08
1.19489e-07
-2.4091e-07
-1.90248e-06
-5.46852e-06
-8.74889e-06
-6.88698e-07
4.92006e-05
0.00020235
0.000562002
0.00131283
0.0026902
0.00496521
0.00857626
0.0138054
0.0210638
0.030483
0.0425006
0.056934
0.0729921
0.0900524
0.109827
0.128887
0.146892
0.162286
0.174797
0.185415
0.18989
0.187845
0.18203
0.169729
0.152453
0.132602
0.107397
0.0835819
0.0577945
0.033329
0.00908864
-0.0130612
-0.0312765
-0.0462024
-0.0579649
-0.0682729
-0.0741873
-0.0749224
-0.0760118
-0.0734049
-0.0689736
-0.0637232
-0.0555765
-0.0506661
-0.0445444
-0.0378813
-0.0322345
-0.027237
-0.02296
-0.0190281
-0.0148668
-0.0121575
-0.00958319
-0.00738054
-0.00569818
-0.00442372
-0.00332921
-0.00248162
-0.00180377
-0.00136329
-0.000999277
-0.000750605
-0.000429158
-0.000288627
-1.99478e-13
6.36952e-13
4.99771e-13
1.49451e-12
1.88914e-13
2.91294e-12
1.06588e-12
-2.06283e-13
7.21386e-12
1.9276e-13
-5.22144e-12
-1.62012e-11
-3.223e-13
1.53816e-13
-3.25905e-13
1.17198e-13
1.31451e-13
-3.19375e-13
-1.74168e-13
3.0294e-13
-3.24167e-13
9.51287e-14
1.49141e-12
-1.2435e-12
3.6508e-13
2.93333e-13
-1.12122e-12
8.59204e-13
1.54474e-12
-1.87955e-12
-6.31212e-13
-1.1022e-12
-1.64519e-12
-4.00835e-13
-8.40601e-13
1.00956e-12
-1.24948e-13
3.47622e-13
1.45891e-12
-1.00406e-12
-6.31452e-13
1.56915e-12
1.18238e-12
4.34796e-12
3.92503e-13
-1.96053e-12
4.65187e-12
3.83504e-12
2.65347e-12
-9.85791e-12
-4.88617e-12
-7.62935e-12
-9.94602e-12
-1.18871e-11
-4.48536e-12
1.39598e-12
-9.71278e-12
3.65393e-12
4.87129e-12
1.41979e-11
3.25825e-12
-1.9346e-11
1.01179e-11
-5.11498e-11
-1.29353e-11
-5.08415e-11
-3.07159e-11
-4.70176e-11
-3.81441e-11
-4.03365e-11
1.23685e-12
-5.28711e-11
2.10115e-11
-1.0705e-10
-2.65405e-11
-1.66173e-10
-1.44131e-10
-1.89389e-10
-3.00971e-10
-3.1189e-11
-3.54509e-10
4.17574e-10
-2.141e-10
1.03275e-09
8.60797e-11
1.30347e-09
5.05728e-10
4.98868e-10
2.70159e-10
-2.26804e-09
-1.55412e-09
-7.28019e-09
-5.92258e-09
-1.28483e-08
-1.30656e-08
-1.53975e-08
-2.16209e-08
-8.08925e-09
-2.75111e-08
1.729e-08
-2.5848e-08
6.82346e-08
-9.96475e-09
1.41372e-07
2.56208e-08
2.26123e-07
7.21431e-08
2.82167e-07
1.13301e-07
2.44097e-07
8.9747e-08
2.77357e-08
-8.31437e-08
-4.63677e-07
-5.15847e-07
-1.2832e-06
-1.35809e-06
-2.34406e-06
-2.7484e-06
-3.3448e-06
-4.73858e-06
-3.55335e-06
-7.16823e-06
-1.54924e-06
-9.61644e-06
4.91306e-06
-1.14428e-05
1.97546e-05
-1.07632e-05
4.79191e-05
-4.3934e-06
9.71527e-05
1.00459e-05
0.000178435
3.97595e-05
0.000302205
9.15608e-05
0.000488139
0.000172207
0.000750366
0.000301084
0.00112806
0.00047873
0.00162574
0.000749683
0.00229016
0.00109811
0.00317514
0.00158477
0.00426531
0.00221361
0.00563404
0.00298232
0.00739026
0.00398018
0.00946024
0.00524549
0.0119172
0.00668499
0.0149306
0.00847472
0.0182819
0.0105265
0.0221411
0.0127986
0.0267095
0.0154949
0.0314005
0.0185153
0.0371188
0.0218646
0.0434828
0.0259795
0.0500288
0.0301542
0.0572769
0.0344045
0.0644039
0.0390768
0.0728259
0.0439301
0.0811048
0.0493351
0.0892872
0.0541687
0.0986754
0.0597223
0.106798
0.0646999
0.114969
0.0690395
0.124091
0.0738208
0.130524
0.0778859
0.138953
0.0819057
0.147005
0.0871154
0.153051
0.0905038
0.158925
0.092502
0.162444
0.0942096
0.167217
0.0947673
0.169305
0.0955306
0.169972
0.0936683
0.171707
0.093076
0.169531
0.0896719
0.166347
0.0850474
0.164313
0.0813932
0.159669
0.0769015
0.152986
0.0695135
0.146657
0.0634301
0.138222
0.0557937
0.129812
0.0467564
0.119439
0.0378156
0.109986
0.028223
0.0987542
0.0192451
0.0871883
0.00847148
0.0757565
-0.000541899
0.0636378
-0.0114272
0.0515593
-0.0218877
0.0397779
-0.0311398
0.0278459
-0.0403563
0.0166768
-0.0499893
0.00518307
-0.0580745
-0.00485553
-0.0664701
-0.0144054
-0.0739163
-0.0244268
-0.0803959
-0.0318957
-0.0861391
-0.0396062
-0.0917129
-0.0477356
-0.0965628
-0.0543568
-0.100444
-0.0598885
-0.103662
-0.0636655
-0.105621
-0.0677358
-0.107675
-0.0714898
-0.108507
-0.0722663
-0.108414
-0.0760646
-0.107895
-0.075266
-0.106497
-0.0747326
-0.104282
-0.0761964
-0.102978
-0.075257
-0.100485
-0.0727209
-0.0968539
-0.072132
-0.0938184
-0.0701562
-0.090237
-0.0679384
-0.086409
-0.0646087
-0.0821775
-0.0621277
-0.0783422
-0.0594552
-0.0741498
-0.0557498
-0.0695796
-0.0538093
-0.0657745
-0.0497237
-0.0611587
-0.0461628
-0.0566967
-0.0437811
-0.0530724
-0.0409724
-0.0494188
-0.0373672
-0.0453694
-0.0349819
-0.0419775
-0.0321631
-0.0385031
-0.0295145
-0.0351906
-0.0267699
-0.0319589
-0.0244306
-0.0291845
-0.0222629
-0.0264387
-0.0198897
-0.0236236
-0.0177505
-0.0210559
-0.0160886
-0.0190627
-0.0145056
-0.0171647
-0.0131858
-0.0155258
-0.0118601
-0.0139277
-0.010393
-0.0122992
-0.00941907
-0.0109919
-0.0082242
-0.00963421
-0.00716454
-0.00844101
-0.00639145
-0.00745947
-0.00548522
-0.00644766
-0.00484084
-0.00568518
-0.00430454
-0.00503735
-0.00375917
-0.00440465
-0.00328235
-0.00383714
-0.00283034
-0.00332594
-0.00247247
-0.00290032
-0.00215152
-0.00251023
-0.00182829
-0.00214865
-0.00160477
-0.00186907
-0.00136846
-0.00160189
-0.00117918
-0.0013747
-0.00103471
-0.00118783
-0.000878161
-0.00100202
-0.000715953
-0.000834987
-0.000604277
-0.000734141
-0.000615817
-0.000454327
-0.000659811
-6.49697e-18
8.23227e-17
1.06803e-14
5.12845e-13
7.56049e-12
-7.07992e-11
2.01899e-09
1.36559e-07
4.40556e-06
1.51986e-07
5.29482e-05
3.69411e-05
1.36163e-05
-6.54563e-44
-2.70023e-36
-1.24184e-31
-2.00421e-28
-4.39889e-27
3.53432e-25
5.40333e-24
7.44929e-24
1.46352e-23
2.69332e-23
-5.7709e-25
-7.54965e-24
-1.14049e-24
-3.39569e-23
-9.82667e-23
1.63947e-23
-3.81315e-23
1.7007e-24
-1.12132e-24
-5.17497e-24
-6.8739e-23
-9.06985e-23
-3.04386e-23
-9.13004e-24
-7.31603e-23
-2.3321e-22
-1.74334e-22
-3.63244e-22
-4.60313e-22
-2.55035e-22
-2.63868e-22
-4.12469e-22
-5.6438e-22
-7.43997e-22
-9.39292e-22
-8.23731e-22
-5.02594e-22
1.10027e-22
3.79848e-22
5.28922e-22
2.79478e-23
-4.74985e-22
-1.57015e-21
-2.4681e-21
-2.21709e-21
-2.14413e-21
-1.70606e-21
-7.77718e-22
5.3266e-23
1.16157e-21
1.70032e-21
1.92894e-21
1.49191e-21
1.47721e-21
1.04973e-21
7.73349e-22
4.62345e-22
2.31213e-22
3.64647e-23
-6.10004e-23
-8.97084e-23
-1.16835e-22
-1.21669e-22
-1.05069e-22
-8.33359e-23
-5.43725e-23
-4.20337e-23
-3.12489e-23
-1.68839e-23
-1.21471e-23
-8.00045e-24
-5.18025e-24
-5.38067e-24
-3.77987e-24
-4.54627e-24
-4.37146e-24
-2.20123e-24
-1.64454e-24
-8.78669e-25
-9.24416e-26
4.54917e-25
7.28177e-25
9.1446e-25
7.63204e-25
5.70876e-25
5.05867e-25
2.78791e-25
2.41971e-25
1.92215e-25
2.77714e-26
-4.03491e-27
-9.6357e-27
-3.10384e-26
-3.44546e-26
-4.9194e-26
-5.29191e-26
2.75549e-25
-2.11942e-24
4.61785e-21
-1.54968e-19
2.35911e-61
1.42112e-06
1.02257e-06
5.02512e-05
2.75485e-05
-1.00309e-05
-2.44131e-07
7.63975e-09
-3.94424e-09
-1.41793e-10
3.70134e-14
7.70097e-14
1.38086e-15
6.62304e-18
3.986e-20
-1.18563e-22
-4.10531e-23
3.53379e-25
9.04177e-27
-1.27401e-29
-3.14338e-31
-1.93002e-34
6.40162e-36
1.04918e-38
-3.64207e-40
2.11642e-42
-2.66283e-45
-4.10051e-47
4.11e-49
-3.34774e-51
3.50034e-53
-2.73897e-55
1.74316e-57
6.90884e-14
-5.44652e-60
1.2225e-11
8.32811e-11
6.15216e-11
-1.04634e-10
2.42055e-10
1.58433e-09
5.33814e-10
-8.94599e-09
-1.83674e-08
1.33462e-08
9.97024e-08
3.99779e-08
-8.52017e-07
-3.48739e-06
-7.61119e-06
-7.38319e-06
1.59242e-05
0.000107762
0.000347228
0.000878481
0.00189424
0.00367721
0.00658068
0.0108953
0.0170003
0.0255965
0.0359417
0.0488951
0.0647586
0.0814839
0.100389
0.118863
0.136665
0.15637
0.168964
0.180799
0.186519
0.187057
0.185949
0.174437
0.159658
0.142117
0.120578
0.0961442
0.0712485
0.0457259
0.020655
-0.00146676
-0.0213702
-0.0401961
-0.0528619
-0.0634747
-0.0699369
-0.0727739
-0.0763776
-0.0725774
-0.0692881
-0.0654508
-0.0593632
-0.0532872
-0.0479193
-0.0403459
-0.0358681
-0.0297343
-0.0250174
-0.0205001
-0.016485
-0.0134143
-0.0105702
-0.00823116
-0.0066139
-0.00496956
-0.00374146
-0.00283967
-0.00207854
-0.00157204
-0.00113837
-0.0008551
-0.000722696
-4.73308e-13
-1.03924e-13
-8.04289e-13
-6.71039e-13
-1.31909e-12
-1.44094e-12
-5.95962e-13
-3.11255e-12
-5.01507e-12
5.9887e-12
-1.0494e-11
-5.17585e-13
2.41477e-13
-2.30695e-13
-1.11481e-13
-2.40649e-13
5.64901e-13
-6.84097e-13
3.16396e-13
-2.2525e-13
-7.45775e-13
1.67981e-13
-9.69868e-16
-8.34837e-14
-2.58299e-12
-4.59559e-12
4.67799e-11
-1.7294e-08
-8.90954e-07
-1.26332e-05
1.39697e-14
-7.56281e-40
-6.06576e-34
-5.48839e-30
-1.7016e-27
4.3496e-26
-2.35386e-24
-5.45122e-24
-1.08058e-23
-2.78423e-23
-1.19469e-23
7.54366e-24
7.50538e-24
3.1455e-23
5.02835e-23
3.39969e-23
-1.49949e-23
2.31021e-23
-2.55965e-23
-3.77075e-23
1.58302e-23
-5.70984e-23
-7.97462e-23
-3.47255e-23
-1.60448e-22
8.46836e-24
-1.55659e-22
-2.28718e-22
-9.62907e-24
-3.75292e-22
-5.72147e-22
-3.8893e-22
-4.95049e-22
-8.21001e-22
-1.07724e-21
-1.02314e-21
-4.28174e-22
-1.92444e-22
3.8496e-22
4.63593e-22
2.8777e-22
-5.03357e-22
-1.4139e-21
-2.10769e-21
-2.72171e-21
-2.71733e-21
-2.25874e-21
-1.23992e-21
-5.73791e-22
5.06636e-22
1.27718e-21
1.6209e-21
2.13887e-21
1.5868e-21
1.44647e-21
8.53335e-22
6.53896e-22
3.16096e-22
1.14258e-22
-4.38822e-24
-1.0981e-22
-9.68467e-23
-1.19017e-22
-1.12632e-22
-8.61068e-23
-7.79711e-23
-4.86512e-23
-3.44871e-23
-2.99811e-23
-1.34762e-23
-1.10914e-23
-5.88519e-24
-6.6492e-24
-6.2513e-24
-5.3735e-24
-4.41839e-24
-4.29565e-24
-2.23854e-24
-1.55491e-24
-5.60991e-25
6.46366e-26
8.91614e-25
8.10039e-25
7.05698e-25
8.20744e-25
6.18631e-25
4.78919e-25
3.20241e-25
2.34518e-25
1.57123e-25
4.93338e-26
2.27704e-26
-1.91023e-26
-1.71397e-26
-4.13778e-26
-4.46652e-26
-3.85506e-26
-6.3809e-25
-3.00129e-22
1.74023e-19
9.47473e-61
2.31733e-46
-2.00784e-10
1.81838e-12
1.46097e-13
1.94414e-15
6.97743e-18
6.86818e-20
-8.21151e-22
-7.2902e-23
7.76519e-25
1.49975e-26
-1.98234e-29
-4.88155e-31
-4.29838e-34
9.55054e-36
1.98296e-38
-5.99471e-40
3.53596e-42
-4.39538e-45
-6.91223e-47
7.25036e-49
-6.33179e-51
6.48624e-53
-5.18614e-55
3.52065e-57
-1.42954e-59
3.03636e-11
3.66096e-11
-1.53665e-10
-3.97173e-11
1.13157e-09
1.88842e-09
-4.20374e-09
-1.54518e-08
-2.70939e-09
8.04242e-08
1.45294e-07
-3.09238e-07
-2.40273e-06
-7.45884e-06
-1.48779e-05
-1.75533e-05
6.80703e-06
0.000102526
0.000357097
0.000897244
0.00188706
0.00354672
0.00617351
0.00991966
0.0152568
0.0216426
0.029934
0.039824
0.0497476
0.0612298
0.0730996
0.0834112
0.0950032
0.100479
0.106373
0.107377
0.103611
0.0994245
0.0852397
0.0694547
0.0523979
0.0312893
0.00911761
-0.0118254
-0.0344787
-0.0527739
-0.0711653
-0.0858726
-0.0975666
-0.105311
-0.111326
-0.113391
-0.111746
-0.109562
-0.102704
-0.0948366
-0.0873543
-0.0782034
-0.0687894
-0.0608583
-0.0515274
-0.0444647
-0.0367043
-0.0309017
-0.0253223
-0.020367
-0.0163799
-0.0129278
-0.010064
-0.00796451
-0.00599189
-0.00454811
-0.00344605
-0.00253197
-0.00189591
-0.00138803
-0.00103475
-0.000817163
-2.19083e-13
-2.7302e-13
-3.11247e-13
-8.96271e-13
2.17192e-12
1.29944e-12
-3.25564e-13
-6.65101e-13
-1.98393e-13
8.79906e-14
-4.35625e-14
1.1073e-14
1.91113e-13
-2.75507e-13
3.97962e-14
7.12051e-14
-1.20674e-13
6.24847e-14
5.76914e-13
1.90818e-11
-9.44882e-11
1.84188e-09
1.79175e-07
7.45957e-06
1.16823e-41
2.10381e-30
1.10776e-27
-4.68232e-27
8.22572e-25
-1.69221e-23
-4.01807e-23
-3.66483e-23
9.84053e-24
6.38184e-24
-4.03155e-23
-4.85356e-23
1.05347e-23
4.35682e-23
-3.57379e-23
1.80679e-23
-4.10049e-23
1.00612e-23
-4.92991e-24
-4.132e-23
1.02769e-22
2.43653e-22
3.09395e-22
4.85774e-22
3.0136e-22
-8.92379e-23
2.85656e-22
2.9758e-23
7.82645e-23
9.76671e-22
9.71467e-22
4.54065e-22
-3.06593e-22
-9.91599e-22
-1.06198e-21
-1.38244e-21
-3.88548e-22
5.56037e-22
1.81434e-21
2.41169e-21
2.38596e-21
1.47463e-21
2.01326e-23
-1.5566e-21
-2.53634e-21
-2.77274e-21
-3.77058e-21
-2.97111e-21
-2.54986e-21
-1.62341e-21
-3.35816e-22
-3.22499e-22
4.04123e-22
3.65052e-22
5.49823e-22
4.81378e-22
4.25716e-22
3.38249e-22
1.57323e-22
1.29982e-22
6.64074e-23
2.01287e-23
1.32795e-23
-1.5959e-23
-4.04593e-24
-1.95214e-24
-6.67511e-24
3.97222e-24
9.30292e-24
7.36939e-24
5.28798e-24
6.75712e-24
6.73707e-24
3.96546e-24
6.36667e-25
1.26339e-24
-1.15249e-24
-1.29997e-24
-1.5202e-24
-1.14248e-24
-1.09947e-24
-8.17868e-25
-3.27611e-25
-5.11281e-25
-1.64569e-25
-1.59141e-25
-1.13937e-25
7.63136e-26
4.40464e-26
1.10028e-25
3.17019e-26
1.03939e-25
4.32437e-26
8.53381e-26
1.04809e-25
-1.80424e-24
2.98099e-23
-4.14543e-20
-1.91125e-14
-1.47565e-16
-2.36051e-19
-1.103e-20
5.13914e-22
2.75021e-24
-1.65604e-25
-6.69332e-28
5.86572e-30
2.36897e-32
-5.85369e-35
-8.28515e-37
5.19818e-39
8.15455e-42
-2.67995e-43
1.59052e-45
-4.30739e-48
-4.22963e-51
1.76346e-52
-2.83501e-54
3.10799e-56
-2.53072e-58
-1.47605e-11
3.03368e-11
-7.47859e-11
-2.20842e-10
3.40266e-10
1.94168e-09
-4.6053e-12
-9.92932e-09
-1.57803e-08
3.02396e-08
1.3288e-07
4.23993e-08
-1.05953e-06
-4.515e-06
-1.1067e-05
-1.76322e-05
-1.0744e-05
4.34226e-05
0.000202066
0.000584205
0.00132082
0.0026066
0.00474844
0.00788636
0.0123556
0.0182822
0.0256872
0.0347076
0.0449895
0.0553322
0.0677475
0.0789675
0.0892556
0.0981842
0.103463
0.108388
0.107119
0.1016
0.0935859
0.0790473
0.0620251
0.0432856
0.0194942
-0.000966374
-0.022682
-0.0436966
-0.0622226
-0.078316
-0.0917957
-0.101811
-0.108738
-0.113169
-0.113299
-0.110784
-0.106825
-0.0993408
-0.0912995
-0.0833479
-0.0727871
-0.064863
-0.0562317
-0.0478024
-0.0403069
-0.033681
-0.0282559
-0.0230402
-0.0182039
-0.0147132
-0.0115547
-0.00897241
-0.00687213
-0.0053032
-0.00398786
-0.00298172
-0.00218091
-0.00163798
-0.00120508
-0.000902038
5.93386e-13
-9.25995e-14
7.96222e-13
3.0731e-13
-1.07778e-13
-6.47459e-13
-5.9236e-12
1.46865e-12
3.38287e-12
-2.2015e-13
1.61185e-13
-1.60906e-13
-5.3159e-14
4.00698e-13
-4.01012e-13
2.28718e-13
-1.18563e-13
-1.03185e-15
-1.37563e-13
-5.26467e-12
-3.64653e-11
3.69623e-10
-2.14094e-08
-1.31895e-06
-3.17744e-05
1.56477e-32
6.47189e-29
5.30291e-27
-3.82151e-25
3.94231e-24
3.4495e-23
4.34978e-23
2.68794e-23
-1.98227e-23
2.97819e-23
7.94771e-23
2.36163e-23
7.8471e-24
3.99315e-23
-5.57318e-23
1.38856e-24
5.18746e-23
7.41297e-23
-9.0634e-23
-4.89597e-24
2.00554e-22
3.17516e-22
6.86986e-22
8.88351e-23
3.28022e-23
-1.56406e-22
-5.55439e-22
2.73157e-22
1.28574e-21
1.03934e-21
8.68476e-22
4.51646e-22
-4.13638e-22
-1.05327e-21
-1.54944e-21
-6.90786e-22
3.13839e-22
1.24414e-21
2.12698e-21
2.69085e-21
1.9414e-21
8.1526e-22
8.86217e-23
-1.49837e-21
-2.11608e-21
-3.22054e-21
-2.96215e-21
-2.28286e-21
-1.71703e-21
-9.13973e-22
-6.6938e-22
8.66702e-23
3.46019e-22
5.29761e-22
4.45046e-22
4.81482e-22
3.60123e-22
2.33305e-22
1.36735e-22
8.14103e-23
3.32188e-23
1.45691e-23
-9.81027e-24
-1.00861e-23
-7.17196e-24
-7.6476e-24
1.59578e-24
4.33525e-24
2.01375e-24
8.77049e-24
5.87919e-24
8.18738e-24
3.39143e-24
1.61607e-25
2.19663e-24
-4.47133e-25
-1.57753e-24
-1.69427e-24
-1.42567e-24
-9.49088e-25
-6.39318e-25
-3.70263e-25
-5.41524e-25
-1.4259e-25
-2.52113e-25
-1.57073e-25
4.72878e-26
-1.37588e-25
2.10741e-26
-9.84666e-27
4.34312e-26
1.64928e-26
6.48983e-26
8.12572e-26
1.09494e-25
2.7965e-24
2.72392e-21
-3.33256e-08
1.29822e-11
1.48924e-09
2.97266e-08
-7.80298e-09
4.3931e-14
-1.38936e-11
-4.11435e-13
2.58712e-13
6.54289e-17
9.89035e-13
7.26758e-38
1.14655e-34
1.51148e-44
3.92411e-40
-1.65175e-38
-1.05198e-37
-1.5983e-37
2.37397e-36
-4.28195e-37
1.85388e-35
-4.10897e-37
3.5716e-35
4.26251e-37
-6.11648e-36
1.71024e-36
-1.10474e-34
1.75909e-36
-2.28225e-34
-6.76239e-36
-3.08151e-34
-3.99342e-35
-1.069e-34
-8.46306e-35
1.75976e-33
3.22692e-34
7.65618e-33
3.12257e-33
1.33733e-32
1.50801e-32
-1.97957e-32
5.47532e-32
-2.7206e-31
1.60137e-31
-1.03368e-30
4.78095e-31
-3.73081e-30
9.52171e-31
-1.22513e-29
1.49174e-30
-2.37852e-29
1.84413e-30
-3.37267e-29
1.97206e-30
-3.8182e-29
1.9148e-30
-3.74345e-29
1.82085e-30
-3.53347e-29
1.84989e-30
-3.44574e-29
1.95496e-30
-3.57815e-29
2.16355e-30
-3.88278e-29
2.33634e-30
-4.34176e-29
2.36515e-30
-4.66068e-29
2.16704e-30
-4.46541e-29
1.90399e-30
-3.72604e-29
1.80786e-30
-3.42418e-29
1.78758e-30
-3.3912e-29
1.62703e-30
-3.29808e-29
1.43933e-30
-2.99141e-29
1.27059e-30
-2.67685e-29
8.91707e-31
-2.07781e-29
5.77332e-31
-1.35677e-29
3.32082e-31
-7.87994e-30
1.38101e-31
-3.36849e-30
4.40366e-32
-1.00169e-30
7.33751e-33
-9.20839e-32
4.01017e-34
2.71301e-32
-6.40534e-35
8.06932e-33
-4.46024e-35
1.04612e-33
-1.07315e-35
-6.67787e-36
1.09873e-37
-8.50678e-35
1.42972e-37
-5.12597e-36
0
8.86327e-37
0
0
0
0
0
0
0
0
0
0
0
0
0
0
0
0
0
0
0
0
0
0
0
0
0
0
0
0
0
0
0
0
0
0
0
0
0
0
0
0
0
0
0
0
0
0
0
0
0
0
0
0
0
0
0
0
0
0
0
0
0
0
0
0
0
0
0
0
0
0
0
0
0
0
0
0
0
0
0
0
0
0
0
0
0
0
0
0
0
0
0
0
0
0
0
0
0
0
0
4.17745e-14
0
0
0
0
0
0
0
0
0
0
0
0
0
0
0
0
0
0
0
0
0
0
0
0
0
0
0
0
0
0
0
0
0
0
0
0
0
0
0
0
0
0
2.88508e-151
-2.25314e-153
-1.82e-133
1.05652e-136
2.96276e-130
3.37533e-130
8.74754e-128
1.08077e-127
5.42689e-123
-3.39214e-126
9.12128e-119
2.06731e-119
1.10597e-113
1.37149e-113
2.08494e-112
8.71256e-114
-2.39016e-109
-3.16968e-109
-1.51516e-109
-2.09424e-109
-1.19267e-109
-1.35048e-109
-2.504e-108
-1.01657e-108
-1.61217e-105
-1.96632e-105
-2.28516e-105
-2.60981e-105
-6.89543e-105
-2.37775e-105
-9.63573e-103
-9.3586e-103
-4.18329e-102
-4.66911e-102
-1.82285e-101
5.02265e-101
1.06461e-98
3.25631e-99
1.41462e-96
1.75461e-96
1.98376e-95
-4.68549e-95
4.45997e-94
4.28201e-94
3.69238e-93
3.66622e-93
2.47413e-93
1.94888e-93
5.86958e-93
-1.56558e-92
2.84365e-92
1.65532e-92
2.67981e-91
2.58953e-91
2.2143e-91
1.35431e-91
3.77153e-90
3.36786e-90
4.89536e-90
4.60419e-90
3.37309e-90
2.95585e-90
3.69866e-90
6.59038e-91
7.43395e-90
6.50833e-90
7.15143e-90
5.88643e-90
1.9209e-89
1.42649e-89
1.35688e-89
7.85846e-90
1.35854e-89
-8.98419e-91
1.6942e-88
1.87226e-88
2.06156e-88
-3.24227e-88
2.24628e-88
-2.22257e-88
2.60482e-88
-1.18769e-88
2.23412e-88
-1.45523e-88
1.46643e-87
-2.04203e-87
1.51762e-87
-9.89345e-88
9.70703e-87
7.91023e-87
7.67132e-87
5.9634e-87
5.57443e-87
3.90235e-87
1.70149e-86
1.1022e-86
2.15452e-86
1.54466e-86
3.73161e-86
-5.52281e-86
8.44904e-86
2.83095e-86
1.28924e-85
1.04726e-85
1.58442e-85
1.29803e-85
1.0945e-85
8.15121e-86
1.62568e-85
6.88703e-86
1.20472e-85
4.39103e-86
9.35883e-86
1.78119e-86
1.56272e-85
1.07915e-85
2.13538e-85
1.87081e-85
1.5013e-85
1.20159e-85
3.1467e-85
2.354e-85
3.55799e-85
3.0657e-85
2.47603e-85
1.98276e-85
2.24981e-85
6.02814e-86
2.85536e-85
1.99111e-85
2.0852e-85
1.12495e-85
5.35475e-85
3.59265e-85
3.93139e-85
2.4311e-85
2.78265e-85
1.86185e-85
1.97339e-85
9.68541e-86
2.22101e-85
1.40742e-85
2.20543e-85
1.25061e-85
2.44469e-85
1.54658e-85
3.90375e-85
9.01604e-86
2.88887e-85
4.8927e-86
2.32205e-85
3.48029e-86
4.58645e-85
2.66302e-85
3.36731e-85
1.73267e-85
2.4846e-85
1.3292e-85
3.10513e-85
1.48808e-85
2.91826e-85
1.42721e-85
2.3657e-85
5.17735e-86
1.78085e-85
3.71295e-86
2.02613e-85
1.18952e-85
1.79871e-85
-3.87113e-86
3.76717e-85
2.47102e-85
2.61338e-85
1.54633e-85
1.77503e-85
1.28036e-85
1.15412e-85
1.11323e-85
1.83137e-85
2.13548e-85
1.0518e-85
2.14568e-85
3.86068e-86
1.59465e-85
2.57601e-86
1.45234e-85
-6.69738e-87
1.27996e-85
8.52829e-87
-1.59988e-86
5.63947e-86
-1.29883e-85
2.1606e-85
-2.03151e-85
1.84367e-85
-7.57618e-86
4.30866e-85
-2.23299e-85
5.17133e-85
-5.87693e-85
4.2926e-85
-4.06357e-85
5.8188e-85
-1.02449e-84
9.23287e-85
-1.77117e-84
2.12807e-84
-3.03755e-84
3.0056e-84
-4.04846e-84
5.4696e-84
-5.61978e-84
7.67592e-84
-6.96155e-84
8.00489e-84
-5.89469e-84
8.65211e-84
-7.49247e-84
1.00261e-83
-5.56249e-84
1.06168e-83
-6.22876e-84
1.15811e-83
-3.51837e-84
1.06618e-83
-5.25664e-84
9.16246e-84
-4.77244e-84
8.67516e-84
-5.92995e-84
8.00235e-84
-6.41669e-84
8.17416e-84
-7.68054e-84
1.09689e-83
-6.11359e-84
1.08159e-83
-8.30725e-84
1.19209e-83
-8.55143e-84
1.14562e-83
-8.24321e-84
1.35679e-83
-6.41134e-84
1.28038e-83
-8.551e-84
1.28843e-83
-7.76229e-84
1.41648e-83
-8.98162e-84
1.3306e-83
-8.67284e-84
1.53106e-83
-1.29182e-83
1.87772e-83
-1.56464e-83
2.1527e-83
-1.41994e-83
2.09473e-83
-1.22843e-83
2.24081e-83
-1.62499e-83
2.32933e-83
-1.46108e-83
2.21852e-83
-1.30453e-83
1.9529e-83
-1.35318e-83
1.99819e-83
-1.3974e-83
1.95527e-83
-1.40364e-83
1.78208e-83
-8.54475e-84
1.41243e-83
-7.75295e-84
1.15141e-83
-7.52552e-84
9.58218e-84
-3.58335e-84
6.00082e-84
5.04044e-85
2.69553e-84
-2.01698e-84
6.7129e-85
1.05948e-84
-7.13287e-86
1.29071e-84
-1.44332e-84
2.44799e-84
-3.99164e-84
1.93112e-85
-4.02204e-84
1.62628e-84
-4.67326e-84
9.28437e-85
-6.00153e-84
1.97392e-85
-5.48274e-84
1.16607e-84
-6.64641e-84
1.67783e-84
-6.76254e-84
2.29216e-84
-6.12447e-84
1.55676e-84
-5.37598e-84
1.79222e-84
-4.57413e-84
9.53272e-85
-3.78813e-84
1.19489e-84
-3.3952e-84
1.17509e-84
-1.54813e-84
1.41552e-84
4.81477e-82
-4.2184e-83
4.70886e-81
-1.29198e-81
-1.02719e-80
-2.93555e-80
2.05973e-79
1.97637e-80
-5.34739e-78
-1.0028e-77
5.91092e-78
4.16919e-77
-1.93313e-75
-4.02778e-76
1.34047e-73
-4.09719e-74
-1.01355e-71
3.67343e-72
-2.90589e-71
-5.90725e-72
-3.94484e-70
5.97211e-70
-1.03012e-68
1.10857e-68
-1.34879e-67
-1.74461e-68
1.10846e-66
6.99046e-66
-6.73371e-65
2.88141e-66
-1.26331e-63
9.05177e-64
1.93996e-62
2.1733e-62
7.32046e-62
8.12848e-61
1.92837e-63
6.74735e-12
-1.94393e-07
-8.46545e-06
4.18059e-05
6.30241e-05
-1.32051e-05
-7.10983e-09
2.94722e-08
-1.38675e-08
1.28965e-13
7.12248e-13
1.5525e-15
3.7789e-18
5.86346e-20
-7.92337e-22
-7.0883e-23
7.15226e-25
1.42145e-26
-1.19683e-29
-4.17603e-31
-5.53665e-34
8.13159e-36
2.64688e-38
-5.79137e-40
3.20241e-42
-2.37169e-45
-7.39016e-47
7.28039e-49
-6.41141e-51
6.61978e-53
-5.00504e-55
3.23116e-57
-1.21187e-59
2.23826e-60
-1.39062e-11
-3.30365e-13
3.94392e-11
-8.5123e-11
-2.48692e-10
2.34532e-10
1.29086e-09
-1.06135e-09
-9.17885e-09
-1.09965e-08
2.57878e-08
8.44036e-08
-5.72354e-08
-9.70462e-07
-3.4378e-06
-7.40813e-06
-9.39535e-06
1.52837e-06
4.92677e-05
0.00017279
0.000446576
0.000937152
0.00171199
0.00297123
0.00461865
0.00687253
0.00960055
0.0125449
0.0158988
0.0189456
0.0208762
0.0235858
0.0239558
0.0231337
0.0206151
0.0157568
0.0111202
0.00306342
-0.00647356
-0.0156189
-0.0262425
-0.0367405
-0.0449594
-0.0529847
-0.0576259
-0.0612101
-0.0619237
-0.0619457
-0.0576601
-0.0542017
-0.0491767
-0.0423984
-0.0381455
-0.0319333
-0.0261022
-0.0212699
-0.0153462
-0.0113329
-0.0083907
-0.00392606
-0.00280581
-0.000939429
0.000383656
0.00103858
0.00151224
0.001229
0.00119642
0.00148343
0.00121337
0.00103053
0.000877265
0.00078507
0.000596038
0.000485249
0.000412894
0.000364138
0.000265866
0.000173767
9.09538e-05
-2.90112e-14
-0.000530428
1.86524e-11
2.07149e-13
-4.9333e-13
-5.91267e-14
-9.41828e-13
1.73109e-12
2.41218e-12
-1.38814e-12
3.8068e-12
2.44248e-13
-1.53807e-15
-5.54876e-14
-2.91419e-12
-1.26814e-13
-1.0011e-13
3.15389e-14
4.81159e-17
8.00006e-14
-5.63716e-14
2.11222e-13
4.62909e-14
-1.10167e-13
1.67653e-13
-1.00169e-13
1.92777e-14
-8.65669e-14
3.29353e-14
-7.23892e-13
2.20433e-13
-1.3117e-11
-1.22833e-11
-1.58235e-10
-2.72897e-12
-1.35639e-12
2.07634e-12
9.53809e-13
1.21583e-13
1.14938e-12
1.74208e-13
-3.85008e-13
1.07533e-12
7.05371e-13
1.38107e-12
1.11716e-12
9.66424e-13
1.57443e-12
-2.8107e-12
-7.82853e-13
-2.54796e-12
-2.87851e-12
-2.60879e-12
-1.87644e-12
3.30159e-13
7.27168e-13
3.68181e-12
-6.75853e-13
-2.53e-12
4.15858e-12
-8.42316e-13
1.41299e-13
4.66339e-12
3.7373e-12
6.16975e-12
8.52056e-12
1.16576e-11
1.26219e-11
-5.58731e-13
1.75846e-11
-2.36914e-11
-2.63899e-12
-3.74651e-11
-1.11194e-11
-3.35084e-11