/*--------------------------------*- C++ -*----------------------------------*\
  =========                 |
  \\      /  F ield         | OpenFOAM: The Open Source CFD Toolbox
   \\    /   O peration     | Website:  https://openfoam.org
    \\  /    A nd           | Version:  7
     \\/     M anipulation  |
\*---------------------------------------------------------------------------*/
FoamFile
{
    version     2.0;
    format      ascii;
    class       volScalarField;
    location    "0.94";
    object      T;
}
// * * * * * * * * * * * * * * * * * * * * * * * * * * * * * * * * * * * * * //

dimensions      [0 0 0 1 0 0 0];

internalField   nonuniform List<scalar> 
45544
(
0
0
0
0
0
0
0
0
0
0
0
0
-3.74886e-40
-9.65349e-40
-5.48922e-39
-1.38618e-38
-5.88305e-38
-7.28428e-38
-2.17851e-37
2.63672e-37
5.42658e-37
4.90893e-36
1.02891e-35
2.30325e-35
7.15427e-35
4.84154e-35
3.10475e-34
-1.05121e-34
1.05843e-33
-1.05207e-33
2.94026e-33
-4.66047e-33
6.39699e-33
-1.4904e-32
1.32921e-32
-3.46255e-32
2.8545e-32
-8.85141e-32
5.11404e-32
-1.76071e-31
7.6076e-32
-3.09063e-31
9.80632e-32
-4.47099e-31
1.05676e-31
-5.26443e-31
1.04507e-31
-5.26705e-31
9.98009e-32
-4.86702e-31
9.78676e-32
-4.68376e-31
1.02465e-31
-4.67129e-31
1.10112e-31
-5.14182e-31
7.17516e-32
-6.17549e-31
-1.13547e-32
-4.68233e-31
1.56771e-31
3.05943e-31
2.20692e-30
1.47191e-30
7.03352e-30
-9.41295e-31
1.25798e-29
-1.00147e-29
1.77024e-29
-1.94013e-29
1.77343e-29
-2.23007e-29
1.36768e-29
-1.97194e-29
7.57039e-30
-9.97363e-30
3.4109e-30
-4.65233e-30
1.35822e-30
-2.38095e-30
4.0388e-31
-9.01052e-31
9.33382e-32
-2.34779e-31
4.30955e-33
2.63747e-32
-2.71297e-33
1.84303e-32
-2.29652e-34
-5.41703e-34
6.08109e-35
-6.46502e-34
-2.62679e-36
8.21792e-35
-4.63548e-39
-2.42085e-36
1.05539e-40
-1.47278e-38
0
1.75329e-40
0
0
0
0
0
0
0
0
0
0
0
0
0
0
0
0
0
0
0
0
0
0
0
0
0
0
0
0
0
0
0
0
0
0
0
0
0
0
0
0
0
0
0
0
0
0
0
0
0
0
0
0
0
0
0
0
0
0
0
0
0
0
0
0
0
0
0
0
0
0
0
0
0
0
0
0
0
0
0
0
0
0
0
0
0
0
0
0
0
0
0
0
0
0
0
0
0
0
0
-1.81012e-47
-1.56824e-39
-1.74937e-35
1.0061e-31
1.22437e-28
-5.82823e-28
9.69289e-27
3.23623e-26
2.98494e-25
1.56512e-24
4.76043e-24
2.20348e-24
1.82967e-24
-4.26682e-24
-8.23443e-24
-8.28796e-24
-1.18815e-23
-1.36553e-23
-7.99819e-24
3.54639e-23
6.25736e-24
-1.54998e-21
2.74834e-21
2.3945e-21
3.48545e-21
-2.68075e-21
-2.07263e-21
-2.19305e-21
7.96307e-21
-1.15827e-20
-8.92689e-21
8.40941e-21
-1.26648e-21
3.73134e-21
4.14456e-20
2.18486e-20
-5.42017e-20
3.09099e-20
1.17953e-19
1.46532e-19
1.07664e-19
4.80929e-20
2.0476e-20
8.47232e-20
3.04428e-19
2.20497e-19
3.36279e-20
1.81285e-19
5.21205e-20
1.30599e-18
1.60009e-18
1.10527e-18
1.96765e-18
5.469e-18
7.90984e-18
1.02693e-17
9.98143e-18
7.16085e-18
-2.80568e-18
-9.25871e-18
-1.18398e-17
-1.71673e-17
-2.11625e-17
-1.92526e-17
-1.57704e-17
-7.28053e-18
2.07493e-20
5.75673e-18
7.13242e-18
1.05194e-17
9.71622e-18
9.0612e-18
6.80165e-18
4.0483e-18
1.78456e-18
7.4639e-20
-1.23015e-18
-1.77425e-18
-2.37493e-18
-2.42769e-18
-2.03459e-18
-1.15772e-18
-9.52949e-19
-6.0017e-19
-2.73516e-19
-7.40381e-20
4.02365e-20
1.5709e-19
1.88114e-19
1.47505e-19
1.43454e-19
9.25174e-20
8.36231e-20
6.12305e-20
4.50887e-20
2.71766e-20
1.77325e-20
3.39151e-20
1.42251e-18
-6.80103e-17
0
0
0
0
0
0
0
0
0
0
0
0
0
0
0
0
0
0
0
0
0
0
0
0
0
0
0
0
0
0
0
0
-9.57646e-123
-2.81014e-123
-6.53897e-115
-6.84864e-115
1.53532e-108
1.92131e-108
-3.87172e-105
-1.83344e-106
2.50475e-103
8.56002e-103
6.25065e-100
2.95835e-100
-4.81936e-98
-4.39158e-98
1.58603e-97
1.05513e-96
-1.62535e-96
8.08707e-96
1.52052e-94
3.53366e-94
-7.52716e-94
1.85616e-93
-4.3489e-92
2.43897e-92
-6.68558e-91
1.25896e-90
-1.80197e-90
-1.09081e-90
-2.64141e-90
6.96683e-90
8.67872e-90
-2.69035e-89
2.79484e-88
-2.7991e-88
3.37692e-87
5.59667e-88
3.41521e-86
1.83967e-86
4.42031e-86
1.44872e-85
-9.3509e-88
2.33223e-85
-2.05093e-85
6.27699e-85
-5.4748e-85
8.32146e-85
-6.84594e-85
5.30327e-86
-8.36696e-85
2.03378e-86
-1.26727e-84
1.00232e-84
3.29353e-85
-5.47796e-84
4.32039e-84
-1.31691e-83
1.36064e-83
-2.59124e-83
2.97997e-83
-6.42652e-84
1.04647e-82
6.82368e-83
-6.72504e-81
2.547e-81
2.06243e-79
4.40945e-79
2.07718e-79
4.87354e-79
-1.21419e-78
4.58056e-78
-9.49788e-78
1.61041e-77
-1.40709e-77
-1.69989e-77
-8.34015e-77
-7.49389e-77
5.09742e-76
-1.24083e-75
2.07939e-75
7.24203e-76
6.21659e-77
1.52822e-75
1.35769e-74
-1.18943e-74
1.56547e-74
5.31061e-74
2.112e-73
6.48389e-73
-3.4833e-73
2.15013e-72
-9.95957e-73
2.11472e-72
-7.22147e-73
6.09186e-73
-3.91277e-72
4.92414e-72
6.36706e-72
-3.22755e-71
1.87098e-71
-5.38997e-71
8.20197e-71
-1.58554e-70
1.55226e-70
6.90479e-71
6.3521e-71
1.98055e-70
2.46596e-71
4.15921e-71
7.98432e-72
2.04448e-70
4.74545e-71
-2.40249e-71
2.58333e-71
-2.38243e-70
2.8345e-70
-4.69889e-70
-2.25642e-70
-3.29558e-69
5.99138e-70
-4.43787e-69
2.18336e-69
-5.40465e-69
3.26966e-69
-3.13959e-70
2.53624e-69
-9.05604e-70
2.74664e-69
-4.76792e-69
1.11224e-68
8.61933e-69
9.27967e-69
2.8361e-69
7.14545e-69
-7.20476e-70
1.36347e-68
-1.63124e-68
1.58086e-68
-2.26011e-68
2.55731e-68
-4.25857e-68
4.5063e-68
-3.65399e-68
7.12182e-68
2.34382e-68
8.28209e-68
-1.01657e-67
1.12245e-67
3.81586e-68
-1.21088e-68
1.37219e-67
-7.01787e-68
2.70756e-67
-1.06514e-67
2.80924e-67
-2.47901e-67
8.79369e-67
-1.98773e-67
1.37822e-66
-1.83747e-67
1.62209e-66
-4.80756e-67
1.35163e-66
-6.48902e-67
1.10006e-66
-7.15412e-67
1.20238e-66
-2.54841e-67
1.79211e-66
-1.21372e-66
4.19774e-66
-2.44716e-66
2.84712e-66
-1.50625e-66
4.14211e-66
-4.59695e-66
1.18126e-65
-7.23199e-66
9.9314e-66
-4.53436e-66
1.19098e-68
-2.37587e-66
8.97435e-66
-1.73153e-67
6.5634e-66
-2.72251e-66
1.13252e-65
-5.24184e-66
1.84415e-65
-7.2429e-66
2.53108e-65
-4.92255e-66
1.37577e-65
9.25779e-66
3.81161e-65
-5.11867e-66
6.35009e-65
-1.46673e-65
2.40884e-65
-4.82822e-66
2.46487e-65
-1.04354e-66
6.71722e-65
-1.8418e-66
5.75634e-65
4.77008e-66
-6.64823e-66
5.25843e-66
6.82263e-65
1.79689e-65
-3.81582e-65
2.72697e-65
-4.98399e-65
5.00811e-65
-2.88693e-65
5.67563e-65
-2.08464e-65
5.20716e-65
-4.52514e-65
8.14029e-65
-6.95052e-65
1.0668e-64
-1.17321e-64
1.21009e-64
-1.25477e-64
1.57666e-64
-1.17673e-64
1.62587e-64
-7.80327e-66
1.43205e-64
5.64936e-65
1.22653e-64
2.38977e-65
5.413e-65
2.52652e-64
-1.04509e-65
2.31428e-65
1.29564e-65
2.05559e-64
-4.07929e-65
4.1463e-64
-1.60969e-64
3.96841e-64
-1.72569e-64
4.44453e-64
-1.81715e-64
5.55502e-64
-1.90015e-64
6.49293e-65
2.2858e-65
3.78909e-64
-2.80255e-65
1.45284e-64
-8.45462e-65
2.11754e-64
1.48586e-64
-1.83445e-64
3.87612e-64
3.17588e-64
2.07417e-64
2.37634e-64
2.41539e-64
-1.58929e-64
2.94286e-64
6.20064e-65
3.60814e-64
-2.27595e-64
4.28679e-64
-3.43105e-64
5.02392e-64
-4.33437e-64
4.52263e-64
-3.43281e-64
4.78794e-64
-3.42654e-64
4.58404e-64
-3.03471e-64
4.89604e-64
-3.18348e-64
4.31963e-64
-2.60187e-64
4.24684e-64
-3.02742e-64
3.0775e-64
-3.78374e-64
3.25147e-64
-4.58758e-64
3.41938e-64
-2.27481e-64
2.47054e-64
-1.78093e-64
1.83857e-64
-2.52222e-64
1.56136e-64
-1.45845e-64
1.17209e-64
1.52399e-65
-3.42635e-65
-9.56855e-65
-2.53297e-65
-4.82616e-65
-6.53832e-65
-2.04297e-65
-9.2972e-65
-3.464e-65
-8.30854e-65
6.31156e-66
-9.23839e-65
5.58991e-65
-1.36737e-64
4.12368e-65
-1.0809e-64
7.07144e-65
-1.21241e-64
7.74358e-65
-1.10499e-64
7.02378e-65
-9.71635e-65
8.082e-65
-8.07254e-65
7.12417e-65
-1.05563e-63
-5.72069e-65
4.61193e-62
6.17364e-62
-1.12286e-60
-2.63605e-61
-3.83921e-58
2.19425e-59
7.16523e-57
8.17325e-57
1.60277e-55
-1.41724e-55
2.01214e-53
-2.49434e-54
-1.88656e-52
-3.16327e-52
4.421e-51
9.63905e-52
-2.35716e-49
-5.9842e-50
1.82032e-48
3.03462e-48
-2.8893e-48
-1.85791e-47
1.36103e-47
4.70313e-47
-1.15825e-46
-1.22638e-46
-4.43265e-45
7.81656e-46
-2.75398e-43
5.10002e-44
4.78298e-42
1.77198e-42
8.30783e-42
-1.77705e-41
3.20168e-40
4.10817e-40
2.66115e-40
-5.58416e-39
3.06585e-40
1.53754e-38
-3.84912e-37
-2.97729e-38
4.57974e-36
-1.74507e-16
-8.89397e-15
7.07489e-14
-6.64538e-12
1.96325e-10
1.44685e-09
-3.41832e-08
4.15105e-07
5.00781e-06
1.82549e-05
3.45218e-05
4.46596e-05
4.68657e-05
4.6656e-05
4.63937e-05
4.61243e-05
4.55342e-05
4.28026e-05
3.58191e-05
2.51599e-05
1.43593e-05
6.56239e-06
2.27829e-06
5.93151e-07
8.39032e-08
-4.28795e-09
-4.98614e-09
-1.05651e-09
-2.90669e-11
2.55088e-11
1.15431e-12
-5.11561e-13
2.71308e-14
3.53047e-15
-7.82243e-16
6.43309e-17
-3.30643e-18
6.45661e-20
4.1251e-21
-5.37176e-22
3.08812e-23
-3.7371e-25
-1.01635e-25
1.20831e-26
-7.47741e-28
2.32232e-29
4.09922e-33
-2.4916e-32
4.56371e-34
6.6554e-13
2.33636e-13
8.67182e-13
-4.72917e-13
-6.78226e-13
1.06988e-12
5.68387e-13
-2.46293e-13
6.36547e-13
-6.64374e-13
-5.6933e-13
-8.45345e-13
-6.65932e-13
-4.347e-13
-7.48077e-13
4.60379e-13
2.9523e-13
-1.12661e-12
-2.86236e-13
4.27671e-13
-5.92612e-13
5.92405e-13
-5.53232e-13
5.40886e-13
3.59808e-12
5.1958e-12
9.07134e-13
-1.32794e-12
2.55469e-12
-6.01614e-12
-2.63202e-12
-2.30016e-12
-3.00066e-12
-8.91969e-12
-9.01744e-12
-3.23632e-13
1.2979e-12
1.52362e-11
-1.16291e-11
4.11735e-11
-3.89626e-11
4.09989e-11
-6.93792e-11
-1.59255e-10
1.08852e-10
9.07588e-11
3.04538e-11
1.07179e-10
-9.12925e-11
-1.35635e-10
-1.00407e-10
-8.90254e-11
1.71127e-10
9.45174e-11
-1.95857e-12
6.11035e-11
-1.37235e-10
-1.3856e-10
1.49651e-10
1.02827e-10
-9.49467e-11
-4.90386e-12
-5.68701e-12
-1.12294e-10
9.64091e-11
1.20302e-10
-7.5697e-11
-2.21673e-11
2.68844e-11
-2.05963e-11
3.27578e-12
2.86673e-11
-8.66687e-12
-3.99741e-11
1.1014e-11
1.96416e-11
-1.08976e-11
-4.87434e-13
2.58569e-14
4.99741e-13
3.17809e-13
1.13311e-12
4.13334e-13
-2.00549e-13
6.91131e-13
1.19233e-12
4.99557e-12
8.74144e-12
-4.49596e-13
2.56285e-13
-2.4429e-13
1.67312e-13
1.10287e-13
-3.98901e-13
2.96055e-13
-1.19627e-14
-1.15998e-13
-4.06122e-14
-1.82372e-17
-3.90366e-43
-1.88832e-37
4.41536e-34
6.6993e-30
1.13402e-27
-8.01744e-28
-4.39659e-26
3.1719e-26
-6.97473e-25
-3.61941e-24
-1.46293e-24
-1.64134e-24
5.02323e-24
-3.72194e-24
-4.32463e-24
-9.50142e-24
-7.53317e-24
-9.21651e-24
-4.06495e-23
-8.72226e-23
6.03758e-22
-6.0478e-22
-3.96671e-21
-7.39048e-23
4.21895e-21
4.24004e-21
-1.90687e-21
-1.24704e-20
-8.18226e-21
6.64238e-21
-1.86428e-20
-4.06953e-20
-3.08696e-20
-2.07697e-20
-2.12862e-20
3.42527e-20
8.20048e-20
-4.85346e-20
-1.64541e-20
2.34981e-19
4.47233e-19
3.36526e-19
3.61636e-19
2.7918e-19
-1.1253e-19
-1.92003e-19
-2.30839e-19
-6.42249e-19
-8.58896e-19
-2.92585e-19
-1.32542e-20
3.49051e-18
3.04807e-18
7.52957e-18
6.79146e-18
1.09957e-17
6.31927e-18
3.37858e-18
-1.07025e-18
-1.31653e-17
-1.34207e-17
-2.16266e-17
-2.07102e-17
-1.67782e-17
-9.83002e-18
-2.79905e-18
1.39766e-18
1.07294e-17
8.57705e-18
1.35328e-17
8.43896e-18
8.83008e-18
5.85834e-18
3.2811e-18
1.36406e-18
-1.01702e-18
-1.22667e-18
-2.07365e-18
-2.28616e-18
-1.98214e-18
-1.94544e-18
-1.13072e-18
-7.24504e-19
-4.40934e-19
-1.99677e-19
4.31347e-21
1.22992e-19
1.6473e-19
2.15596e-19
1.69591e-19
1.30467e-19
9.08885e-20
7.03935e-20
5.36042e-20
3.4221e-20
1.75098e-20
-3.47814e-20
-3.19987e-19
7.5452e-41
1.1389e-17
2.02341e-44
-9.98103e-17
4.00451e-15
5.77081e-36
5.67736e-15
6.68495e-15
-3.99166e-13
-2.58306e-11
1.34902e-09
-8.94507e-09
-6.62884e-09
1.86616e-06
1.04271e-05
2.65314e-05
4.07326e-05
4.63239e-05
4.68593e-05
4.65065e-05
4.62364e-05
4.59732e-05
4.45482e-05
3.99318e-05
3.06949e-05
1.96054e-05
1.00279e-05
4.06288e-06
1.23328e-06
2.50098e-07
1.70514e-08
-7.1223e-09
-2.60747e-09
-3.16142e-10
3.23209e-11
9.95737e-12
-8.02023e-13
-1.01457e-13
2.23212e-14
-1.37183e-15
-4.6112e-17
1.67701e-17
-1.75416e-18
1.41438e-19
-9.21716e-21
5.49198e-22
-3.1148e-23
1.6331e-24
-7.01996e-26
1.74546e-27
2.96637e-29
-4.61197e-30
1.39845e-31
5.75033e-34
1.19981e-13
-8.89491e-35
-8.89916e-13
4.04973e-12
-1.53057e-11
-3.42328e-13
-3.86871e-13
-8.438e-13
-7.33926e-13
-6.57381e-13
1.3298e-12
-3.21488e-13
-7.75502e-12
-2.4217e-12
-2.87062e-13
-9.67784e-12
-7.52575e-14
-1.91255e-14
4.08323e-14
-1.80278e-13
8.28233e-14
3.29748e-13
-5.9811e-13
4.51982e-13
-2.62216e-13
1.07092e-13
0
3.0808e-34
-1.18735e-30
-9.83782e-28
5.9717e-27
1.06371e-26
-2.14167e-25
-6.55559e-25
-3.88958e-24
-1.31938e-23
-9.86282e-24
-3.1984e-24
-9.46604e-24
-1.0732e-23
-1.51602e-23
-1.59838e-23
-7.96793e-24
-1.28655e-23
-1.4365e-22
-5.63269e-22
3.99284e-21
-1.85986e-22
2.10019e-21
4.22547e-21
1.07848e-20
-2.43488e-20
6.75997e-21
-1.47527e-21
2.80973e-20
-3.51411e-21
-7.42902e-20
-6.00432e-20
-4.43979e-20
-1.18084e-19
-7.39697e-20
-2.01363e-20
-1.56684e-19
-2.67939e-19
8.24677e-23
-1.05884e-19
-1.12331e-19
2.36444e-19
-8.73405e-20
-5.56204e-19
-3.01172e-19
1.27352e-19
-1.78102e-18
-2.20827e-18
-5.02958e-18
-9.53941e-18
-5.98123e-18
-1.218e-17
-1.03914e-17
-6.5604e-18
6.84892e-18
1.50734e-17
3.07614e-17
3.83358e-17
2.64008e-17
2.72246e-17
1.39551e-17
3.30466e-18
-3.86474e-18
-1.61184e-17
-2.24654e-17
-2.50803e-17
-1.32861e-17
-1.62413e-17
-8.33957e-18
-5.7263e-18
1.13394e-18
2.77757e-18
4.58519e-18
5.12924e-18
3.84709e-18
4.32803e-18
2.36206e-18
1.44063e-18
1.17362e-18
-1.97134e-19
4.3948e-20
-8.11352e-20
-4.05826e-19
-4.37328e-19
-3.57637e-19
-3.1572e-19
-2.88759e-19
-1.05101e-19
-1.16294e-19
-6.80349e-20
-1.99936e-20
-1.92375e-20
1.17724e-20
1.00015e-20
5.61933e-21
-1.53349e-20
2.86761e-19
-5.46709e-18
4.89988e-14
-1.36566e-11
5.35461e-10
-2.70309e-10
-4.73217e-08
9.44061e-07
8.01611e-06
2.4893e-05
4.22927e-05
5.08478e-05
5.20446e-05
5.17355e-05
5.13953e-05
5.12084e-05
5.01712e-05
4.62767e-05
3.71135e-05
2.47948e-05
1.33325e-05
5.69929e-06
1.82728e-06
4.15318e-07
4.03253e-08
-8.3747e-09
-4.02236e-09
-6.14055e-10
2.85756e-11
1.80856e-11
-7.41271e-13
-2.54969e-13
3.66724e-14
-1.19299e-15
-2.316e-16
3.79942e-17
-3.47307e-18
2.51598e-19
-1.54092e-20
9.28118e-22
-5.26085e-23
3.0764e-24
-1.54573e-25
4.94398e-27
-1.84976e-29
-7.61952e-30
3.12286e-31
-1.0109e-33
-2.65215e-34
-1.83117e-13
2.31491e-13
-4.29983e-14
7.02858e-13
1.60355e-13
1.78859e-12
3.45175e-12
5.3348e-13
-1.15981e-12
-4.25688e-12
1.08705e-13
-6.6218e-14
8.66216e-14
1.53159e-14
1.23793e-13
-3.19334e-13
2.48992e-13
-4.79446e-14
-1.36075e-14
-9.21722e-16
5.90917e-36
-9.14425e-33
-6.6944e-29
-2.86091e-27
-1.61821e-26
9.89135e-26
1.02901e-25
9.93162e-25
1.00528e-23
7.67552e-24
3.32515e-24
-1.45148e-23
-1.22878e-23
-1.11374e-23
-1.65395e-23
-2.01224e-23
-2.88978e-23
-1.07159e-23
1.73312e-22
-1.96699e-22
-3.73701e-21
-2.56338e-21
-9.77824e-21
-1.88184e-20
-2.53525e-21
1.81337e-20
-2.59184e-21
-8.31918e-21
-3.95385e-20
-2.52604e-20
-1.19758e-20
-2.5214e-20
-4.61719e-20
-1.05763e-19
-1.57815e-19
-3.30441e-19
-1.14026e-19
-2.07694e-19
-6.59655e-19
-6.19727e-19
-4.38591e-19
-2.44608e-19
3.75479e-19
3.6232e-19
5.09245e-20
-8.13671e-19
-9.98333e-19
-3.05053e-18
-5.23837e-18
-8.32759e-18
-1.11709e-17
-8.58182e-18
-5.94356e-18
4.21255e-18
6.94612e-18
2.24255e-17
2.72953e-17
2.56986e-17
2.34529e-17
2.04928e-17
5.11059e-18
-4.90875e-18
-1.53112e-17
-1.75864e-17
-2.53742e-17
-2.06537e-17
-1.70878e-17
-1.3642e-17
-5.39322e-18
-3.12337e-18
6.72494e-19
2.5997e-18
4.57999e-18
4.51934e-18
3.95227e-18
2.4907e-18
1.29374e-18
1.10795e-18
3.61897e-19
3.25317e-19
-1.9506e-19
-3.49921e-19
-3.69138e-19
-3.01867e-19
-3.16188e-19
-2.83716e-19
-1.81777e-19
-1.44641e-19
-6.64083e-20
-2.39421e-20
-1.95553e-20
8.80036e-21
1.32294e-20
1.44714e-20
8.92583e-21
2.43749e-19
1.71553e-18
2.32038e-09
-2.11924e-08
7.7578e-08
3.35276e-06
1.54465e-05
3.42313e-05
4.80177e-05
5.19022e-05
5.20715e-05
5.14766e-05
5.12875e-05
5.08359e-05
4.86475e-05
4.2369e-05
3.11084e-05
1.86405e-05
9.01078e-06
3.31548e-06
9.24186e-07
1.52529e-07
2.66335e-10
-7.07848e-09
-1.81724e-09
-1.0951e-10
3.75095e-11
3.6571e-12
-8.45137e-13
1.30324e-14
9.72176e-15
-1.40969e-15
9.14646e-17
-2.3044e-18
-2.02465e-19
2.98885e-20
-2.39563e-21
1.37858e-22
-5.01e-24
7.79898e-27
1.62999e-26
-1.38906e-27
5.40332e-29
-4.27005e-31
-4.32077e-32
1.43635e-33
1.84498e-35
9.95778e-14
-1.72063e-13
-2.32102e-13
-2.74603e-13
-1.25612e-12
-7.45493e-13
-4.53485e-12
-1.26875e-12
5.39413e-12
-3.0928e-12
1.82868e-13
-7.98414e-14
9.13568e-14
-1.28385e-13
1.37961e-13
2.16028e-13
-3.11218e-13
2.34051e-13
-1.25988e-13
6.0538e-14
7.79498e-38
-1.84193e-14
-1.67955e-11
-1.50371e-12
3.65702e-14
-2.58666e-13
0
4.54226e-33
0
4.2989e-43
-1.71796e-42
1.26855e-42
-1.16095e-39
-1.5036e-39
-1.28015e-38
-1.50332e-38
-3.58504e-38
8.40445e-38
1.36052e-36
1.73881e-36
8.10373e-36
6.61915e-36
-3.07418e-35
-1.97884e-35
-3.9847e-34
-2.3935e-34
-1.017e-33
-9.27916e-34
3.64425e-33
-1.03593e-33
2.7998e-32
4.5446e-33
8.40114e-32
3.58448e-32
1.20396e-31
1.33661e-31
-2.57839e-31
3.34827e-31
-1.44602e-30
9.01634e-31
-4.12056e-30
1.88426e-30
-1.34517e-29
3.40938e-30
-3.01009e-29
4.97035e-30
-5.42592e-29
5.89431e-30
-7.35199e-29
5.84444e-30
-7.70791e-29
5.36118e-30
-6.87804e-29
5.20672e-30
-6.35746e-29
5.22536e-30
-6.40732e-29
5.6828e-30
-6.54709e-29
6.76309e-30
-7.40488e-29
6.06833e-30
-1.00597e-28
-6.09945e-31
-8.70901e-29
-8.49308e-30
8.5616e-29
1.15835e-29
2.42311e-28
8.01151e-29
-1.64858e-29
1.54446e-28
-6.76451e-28
1.80311e-28
-1.17582e-27
1.57512e-28
-1.06835e-27
8.96286e-29
-6.50113e-28
4.80213e-29
-3.86287e-28
2.64394e-29
-3.15096e-28
1.11091e-29
-1.85999e-28
2.95907e-30
-6.05894e-29
-1.14798e-34
1.08214e-30
-1.28071e-31
2.97379e-30
3.8537e-33
-3.01001e-31
4.46197e-33
-1.13176e-31
-8.86977e-34
4.4887e-32
4.2952e-35
-4.08435e-33
-4.38961e-37
1.33864e-34
-2.098e-38
1.09343e-36
1.44369e-40
-1.07983e-37
0
7.28488e-40
0
-5.10055e-44
0
0
0
0
0
0
0
0
0
0
0
0
0
0
0
0
0
0
0
0
0
0
0
0
0
0
0
0
0
0
0
0
0
0
0
0
0
0
0
0
0
0
0
0
0
0
0
0
0
0
0
0
0
0
0
0
0
0
0
0
0
0
0
0
0
0
0
0
0
0
0
0
0
0
0
0
0
0
0
0
0
0
0
0
0
0
0
0
0
0
0
0
0
-1.62233e-14
5.67626e-15
9.81574e-15
1.09464e-14
-1.55526e-29
-8.50213e-27
3.44285e-26
4.21363e-25
1.67e-25
1.92815e-25
1.1632e-24
-1.13853e-23
-8.04948e-24
9.32323e-24
-3.93166e-23
-3.93062e-23
-2.16011e-23
-4.62283e-23
-1.41111e-23
1.1341e-22
-4.79377e-22
-3.15527e-21
1.35265e-20
1.91834e-20
2.66218e-20
1.09953e-20
2.63363e-20
-1.01329e-19
2.24193e-19
1.45512e-19
2.23137e-19
9.08506e-20
-2.10329e-19
-2.19772e-19
-2.49697e-19
-5.64476e-19
-2.86056e-19
-5.03461e-21
-5.24787e-19
-1.36439e-18
1.20814e-19
-1.16511e-18
-1.60586e-18
8.4968e-20
-1.56214e-18
-3.52114e-18
-1.50304e-18
5.97923e-18
-1.61162e-18
2.48335e-19
-9.63973e-18
-3.59357e-17
-2.75279e-17
-7.45997e-17
-1.20685e-16
-1.44387e-16
-1.287e-16
-1.0303e-16
3.94533e-18
1.06779e-16
1.47056e-16
2.2336e-16
2.98144e-16
3.03602e-16
2.75678e-16
1.48366e-16
4.95243e-17
-3.64275e-17
-7.2313e-17
-1.37931e-16
-1.65434e-16
-1.43364e-16
-1.09022e-16
-8.85106e-17
-5.82864e-17
-2.79695e-17
-2.47688e-18
1.99608e-17
2.38474e-17
2.67173e-17
2.90837e-17
2.00547e-17
1.86469e-17
1.42827e-17
7.42751e-18
4.1403e-18
1.36795e-18
-5.84215e-19
-2.0545e-18
-1.88738e-18
-2.33791e-18
-1.99725e-18
-1.28908e-18
-1.27466e-18
-7.68201e-19
-6.16811e-19
-4.03824e-19
-5.17615e-19
1.81685e-18
-2.44695e-17
2.44563e-09
1.06371e-38
-3.21325e-17
5.65149e-43
-1.5481e-40
0
0
0
0
0
0
0
0
0
0
0
0
0
0
0
0
0
0
0
0
0
0
0
0
0
0
0
0
0
0
-1.96975e-121
-2.37253e-128
-2.20551e-113
-1.86702e-113
1.0105e-106
1.27018e-106
-2.76793e-103
9.21748e-106
2.34357e-101
5.52853e-101
3.37829e-98
4.33898e-98
-1.11668e-96
1.14218e-97
3.53658e-95
5.54848e-95
7.43155e-95
2.43757e-94
2.14894e-92
3.31017e-92
-2.80014e-92
6.44587e-93
-4.27924e-90
1.88255e-91
-1.94362e-89
4.17137e-89
-1.78238e-88
2.21792e-88
-3.10167e-87
-6.3286e-88
-2.93545e-87
-9.78971e-88
1.98332e-86
-3.42085e-86
2.30177e-85
3.92613e-87
3.56011e-84
2.69881e-84
1.15705e-84
1.09313e-83
-3.60866e-84
1.44941e-83
-8.41676e-84
3.62725e-83
-2.56998e-83
5.83639e-83
-3.27804e-83
4.75905e-83
-5.84182e-83
6.86304e-83
-9.873e-83
-1.18515e-83
-1.0176e-82
9.72839e-83
3.9296e-83
-9.17968e-82
3.38095e-82
-1.21292e-81
1.19621e-81
-1.29445e-81
1.8571e-80
2.29104e-80
5.06532e-79
2.52231e-80
9.78763e-78
2.60511e-77
-4.53235e-78
5.40909e-77
1.75356e-76
5.80302e-76
-5.06024e-76
1.39241e-75
-8.06533e-76
2.73144e-76
-7.34397e-75
1.3252e-75
1.724e-74
-8.57627e-74
6.13257e-74
-7.19104e-74
-3.10644e-75
1.75563e-75
7.03849e-74
-7.59161e-73
3.65565e-72
-1.0653e-71
1.21988e-71
3.92198e-71
-2.36171e-71
6.96195e-71
-4.69986e-71
7.68987e-71
-8.5461e-71
1.16443e-70
-2.16911e-70
-1.36466e-70
-1.45095e-70
6.22698e-70
1.03041e-69
-3.35597e-69
1.92878e-69
-7.53885e-69
5.31326e-69
-1.53155e-68
4.63386e-69
-4.31915e-69
8.62474e-69
-5.08567e-69
8.20373e-69
2.55216e-69
2.31735e-70
1.59525e-68
-1.25298e-70
-1.37946e-68
-9.43838e-69
-3.92903e-68
-2.69643e-68
-9.66996e-68
7.42787e-68
-2.90298e-67
8.82373e-68
-2.87356e-67
2.27045e-67
-6.77865e-67
3.60261e-67
-6.12773e-67
3.9493e-67
-3.96575e-67
3.89391e-67
-4.8269e-67
3.5977e-67
-1.985e-67
3.23677e-67
-7.09616e-67
2.90167e-67
-9.83319e-67
9.35979e-67
-1.97053e-66
1.13304e-66
-1.63482e-66
1.27341e-66
-2.77652e-66
2.34219e-66
-4.21814e-66
3.88761e-66
-4.11445e-66
3.17234e-66
-3.11563e-66
6.57831e-66
-6.96717e-66
2.15701e-66
8.53307e-66
1.31055e-66
1.67442e-65
-2.61831e-66
2.04228e-65
1.38472e-66
3.06167e-65
2.88644e-66
3.09179e-65
-5.582e-66
2.07847e-65
1.99377e-66
5.88504e-66
1.06074e-65
5.12919e-65
-6.14916e-66
6.09518e-65
-1.12324e-65
1.66456e-65
1.08535e-65
8.98401e-65
-3.20023e-65
1.70102e-64
-3.26424e-65
-2.6985e-65
-6.97784e-65
1.12238e-64
-5.05354e-65
3.29043e-64
5.9816e-65
-2.29399e-64
3.9652e-64
2.05866e-64
2.56755e-64
1.48732e-64
1.04723e-64
2.28899e-64
-1.49493e-66
9.11735e-65
7.64618e-64
3.42765e-64
4.73254e-64
5.58073e-64
3.06321e-64
-3.11506e-65
1.12694e-63
2.72228e-65
1.461e-63
7.74997e-64
9.52653e-64
-7.37264e-65
1.64201e-63
-1.40486e-63
2.30579e-63
2.5259e-64
2.53777e-63
-1.82573e-63
4.3384e-63
2.18477e-63
3.22973e-63
1.24332e-63
2.38665e-63
8.84564e-64
1.40499e-63
5.57929e-64
1.74104e-63
-9.85215e-64
2.04328e-63
7.77914e-64
1.40749e-63
7.97934e-64
3.15253e-63
-7.89673e-64
3.5975e-63
1.36878e-63
2.5313e-63
-3.0919e-64
4.03069e-63
-2.66129e-63
5.28537e-63
2.72917e-63
7.33462e-63
-6.03465e-63
9.41512e-63
1.1281e-62
4.81337e-63
6.80004e-63
3.61525e-63
-1.21373e-63
4.24699e-63
-2.7108e-63
2.82241e-63
-1.93377e-63
4.32204e-63
-7.99259e-63
1.10014e-62
-3.83389e-63
1.15513e-62
-8.97705e-63
1.33336e-62
-1.29334e-62
1.38425e-62
-1.33256e-62
1.67599e-62
-1.03475e-62
1.5862e-62
-1.51753e-62
1.62278e-62
-1.04794e-62
1.55589e-62
-1.23873e-62
1.49926e-62
-2.05288e-62
1.78316e-62
-8.94209e-63
1.49037e-62
-1.32444e-62
1.16501e-62
-1.65515e-62
1.26821e-62
-1.17316e-62
9.67369e-63
-1.64027e-62
1.10341e-62
-1.15572e-62
7.2146e-63
-1.4496e-62
7.79614e-63
-1.07612e-62
5.12016e-64
-7.25828e-63
5.74529e-64
-4.28842e-63
2.21067e-64
-5.29675e-64
-3.62962e-63
6.33173e-64
-5.5117e-63
6.19785e-64
-5.4742e-63
2.49267e-63
-6.59875e-63
4.39009e-63
-6.3255e-63
3.24312e-63
-6.25136e-63
3.71583e-63
-5.86896e-63
3.82378e-63
-5.34305e-63
3.20779e-63
-5.14857e-63
2.93788e-63
-4.88995e-63
2.53428e-63
-3.96942e-63
2.37993e-63
-2.63797e-63
3.70594e-63
-2.77073e-63
2.30976e-63
-8.12156e-64
7.35629e-64
-1.14129e-64
1.63499e-63
-2.36577e-64
8.50305e-64
1.46785e-64
-3.32333e-64
1.76287e-63
3.93456e-64
1.32118e-60
-2.46106e-61
-2.35338e-59
-5.29992e-59
-1.6994e-59
1.13261e-58
2.80086e-55
9.3846e-57
-4.99823e-54
-4.94905e-54
-5.1422e-53
7.8879e-53
-5.8144e-51
8.51053e-52
2.53299e-50
8.50879e-50
-2.00023e-48
1.9307e-49
6.5812e-47
2.46788e-47
-3.61382e-46
-7.11613e-46
6.61165e-46
3.43471e-45
-1.68062e-45
-2.79895e-45
1.04284e-44
2.74768e-44
6.18938e-43
-1.3755e-43
2.05697e-41
-7.23699e-42
9.61089e-41
5.26676e-41
8.47638e-39
-6.63344e-39
-2.08014e-37
-1.94175e-37
3.30906e-37
1.16561e-36
-1.60043e-36
1.51653e-35
7.70519e-37
-3.42292e-12
7.39323e-14
-2.58101e-13
-3.14567e-13
-1.50349e-11
-2.49264e-11
3.76811e-14
-3.30837e-14
9.95065e-14
6.24581e-10
6.77642e-11
1.36986e-09
-1.91542e-12
-4.74595e-12
-2.33794e-08
1.05625e-07
3.75172e-06
1.70809e-05
3.78046e-05
5.29872e-05
5.73196e-05
5.75234e-05
5.68703e-05
5.66918e-05
5.61794e-05
5.3763e-05
4.67752e-05
3.4362e-05
2.06228e-05
9.9733e-06
3.67714e-06
1.02132e-06
1.69689e-07
3.92302e-10
-7.85399e-09
-2.01703e-09
-1.23387e-10
4.12056e-11
4.08272e-12
-9.21121e-13
1.20808e-14
1.0807e-14
-1.5169e-15
9.58276e-17
-2.17776e-18
-2.45757e-19
3.35469e-20
-2.60719e-21
1.51344e-22
-5.62092e-24
2.20957e-26
1.63552e-26
-1.42752e-27
5.57817e-29
-4.9253e-31
-4.29984e-32
1.48042e-33
-2.62327e-34
-6.10614e-34
3.8753e-35
5.0653e-14
-2.49578e-14
4.4118e-11
-1.73464e-12
2.23754e-13
-7.69595e-13
2.22872e-13
6.75703e-13
-2.98345e-13
-2.52913e-13
1.49536e-13
5.94211e-17
6.0739e-13
1.74316e-13
1.8114e-12
1.05469e-12
3.84572e-13
1.35295e-12
-8.28599e-13
-3.46196e-13
-2.14548e-12
-6.3046e-13
-1.54457e-13
-9.12229e-13
-7.97755e-13
-1.72207e-12
-5.08722e-13
2.24056e-12
-1.79004e-12
-7.80353e-13
-1.06116e-12
-1.32105e-12
1.51395e-12
5.20322e-12
1.02504e-11
1.58146e-13
1.19664e-12
1.55373e-11
-1.52466e-11
-1.49495e-10
1.36438e-10
1.73797e-11
7.16895e-11
2.20264e-10
-2.72166e-10
-2.85982e-10
5.172e-11
-2.14533e-10
2.07532e-10
4.6114e-10
-2.4828e-10
-1.981e-10
1.93121e-11
-3.27177e-10
2.37635e-10
4.74188e-10
-2.54424e-10
-8.10873e-11
4.72116e-11
-3.11172e-10
9.9506e-11
2.98393e-10
-1.16244e-10
-1.13041e-10
1.09549e-10
-4.54967e-12
-5.35903e-11
1.00581e-10
-4.51952e-11
-1.42752e-10
2.93703e-11
1.22224e-11
-5.93512e-12
-4.31274e-12
4.45644e-12
-5.06417e-46
-1.92009e-14
-3.8791e-13
-1.48448e-13
-1.14492e-12
-1.63785e-12
-3.95508e-12
-1.12416e-12
5.28647e-12
-3.58171e-12
1.6904e-13
4.04963e-13
-2.76717e-13
2.08458e-13
-7.61876e-14
6.04445e-14
-4.36273e-14
-1.72738e-14
2.15667e-13
-1.3708e-13
-2.03594e-14
1.03847e-13
-6.67648e-14
4.47444e-14
1.85623e-34
-3.80916e-33
0
4.21345e-13
-9.06344e-13
7.75501e-13
8.02404e-12
-1.2183e-10
3.16878e-11
2.68516e-14
-1.28343e-14
6.13685e-12
2.04044e-11
7.23062e-14
5.60652e-14
-4.23832e-17
-3.39597e-32
-1.55826e-31
-1.00971e-16
-2.53973e-13
2.59046e-30
-1.7662e-16
-6.39389e-28
-3.47945e-27
-1.81577e-25
-3.22622e-25
-8.86475e-25
-5.60175e-24
1.68323e-23
-9.54876e-24
-1.6001e-23
-5.21341e-23
-8.05713e-24
-1.7761e-23
-2.44924e-23
-4.28322e-23
-6.61634e-23
-8.49919e-23
4.5922e-22
3.81865e-21
-1.52855e-20
-2.68325e-20
-6.07251e-20
-8.86538e-20
2.98619e-20
1.46964e-20
-1.83873e-19
-9.50972e-20
-1.84019e-19
-9.85172e-20
2.34787e-20
1.25697e-20
-9.79729e-20
-5.97944e-19
-7.27379e-19
-1.3923e-18
-3.58104e-19
-1.32547e-18
-4.21363e-18
-3.72251e-18
-3.57706e-18
-3.01787e-18
2.02547e-18
1.71662e-18
4.15637e-19
1.89076e-19
3.07571e-18
-1.03643e-17
-1.17132e-17
-3.26813e-17
-5.73526e-17
-7.05627e-17
-1.1159e-16
-1.17162e-16
-1.50887e-16
-7.29383e-17
1.28755e-17
9.46948e-17
1.56109e-16
2.57929e-16
2.57823e-16
2.51114e-16
1.8494e-16
1.15481e-16
-9.32587e-19
-7.46384e-17
-1.19023e-16
-1.61177e-16
-1.33249e-16
-1.45578e-16
-1.08853e-16
-7.94548e-17
-4.00645e-17
-9.31525e-18
8.35236e-18
1.50618e-17
2.11022e-17
2.84309e-17
2.53567e-17
2.05423e-17
1.46931e-17
9.66832e-18
5.95688e-18
3.09477e-18
6.12341e-19
-1.27724e-18
-2.05997e-18
-2.14807e-18
-1.90199e-18
-1.27933e-18
-1.32208e-18
-8.37336e-19
-6.90191e-19
-4.40456e-19
-2.62673e-19
1.82002e-18
1.7727e-17
1.47409e-25
6.72996e-26
3.10083e-26
1.68325e-28
-3.56236e-11
-8.04608e-10
-4.82467e-08
1.07522e-06
8.93265e-06
2.74641e-05
4.67037e-05
5.61481e-05
5.75158e-05
5.72028e-05
5.67912e-05
5.65791e-05
5.54457e-05
5.10787e-05
4.09748e-05
2.73992e-05
1.47419e-05
6.3039e-06
2.02556e-06
4.58964e-07
4.45148e-08
-9.28974e-09
-4.48068e-09
-6.82213e-10
3.10276e-11
1.98497e-11
-7.90823e-13
-2.81562e-13
3.95257e-14
-1.21316e-15
-2.60329e-16
4.08996e-17
-3.71576e-18
2.66728e-19
-1.60621e-20
9.60148e-22
-5.43306e-23
3.20143e-24
-1.60874e-25
5.18915e-27
-2.81811e-29
-7.60285e-30
3.20532e-31
-1.35203e-33
5.11602e-36
1.69867e-14
1.52588e-11
-2.52678e-11
6.01929e-14
-3.9406e-43
7.64454e-14
5.63464e-13
4.5991e-13
1.13193e-12
3.38329e-12
1.28048e-12
6.65248e-13
-8.11635e-12
5.15061e-12
-4.04572e-14
1.10569e-14
-1.17319e-13
1.06569e-13
4.49996e-14
-4.70605e-14
-5.28399e-14
-1.53421e-13
3.19886e-13
-2.23373e-13
1.22598e-13
-3.48432e-14
-5.31763e-14
-1.25153e-34
3.52048e-23
4.77523e-27
4.65553e-13
5.76516e-14
-9.37472e-14
1.54769e-13
-4.85872e-14
-3.10036e-12
-6.98252e-12
1.20087e-13
4.30626e-13
-3.16568e-13
-6.41109e-13
3.50938e-33
-6.74743e-32
-1.83644e-30
1.15645e-28
-2.46701e-27
1.54865e-26
4.42065e-25
-1.85688e-23
4.04455e-22
-6.91478e-21
1.00307e-19
-1.05004e-18
3.51495e-18
1.02874e-16
-2.39445e-15
2.3568e-14
-4.24386e-14
-1.3437e-12
9.35596e-12
5.38078e-11
-2.91471e-10
-3.15555e-09
-1.02297e-08
1.16683e-08
2.84945e-07
1.50306e-06
5.08914e-06
1.2968e-05
2.57472e-05
4.05389e-05
5.2878e-05
5.9004e-05
6.06644e-05
6.09889e-05
6.12892e-05
6.17278e-05
6.12838e-05
5.4386e-05
3.52844e-05
1.32766e-05
-6.22401e-17
-8.11514e-18
6.20008e-20
-1.44308e-19
-1.07579e-19
-2.83925e-20
1.73288e-19
6.71477e-19
8.19166e-19
7.9947e-19
2.25528e-18
3.01969e-18
3.88562e-18
4.62395e-18
6.44839e-18
5.07641e-18
4.35426e-18
2.27881e-18
-5.8294e-18
-1.55061e-17
-2.77148e-17
-2.94825e-17
-4.37227e-17
-6.19858e-17
-7.7821e-17
-6.14886e-17
-4.09623e-17
4.98803e-18
4.06009e-17
7.94874e-17
1.81488e-16
2.23962e-16
2.9176e-16
2.51992e-16
2.27268e-16
2.33208e-16
9.9399e-17
-7.97551e-17
-3.20261e-16
-4.07217e-16
-4.64394e-16
-3.57132e-16
-2.60418e-16
-2.40231e-16
-3.2976e-17
2.85238e-17
1.271e-16
1.26467e-16
8.59902e-17
1.18171e-16
5.09838e-17
3.49384e-17
3.21606e-17
8.51537e-18
-1.21592e-18
5.21932e-18
1.65768e-18
-7.07416e-19
3.13564e-18
1.39598e-18
8.85409e-19
9.4955e-23
5.38277e-23
2.65613e-18
1.66996e-18
1.80368e-18
4.42706e-19
5.538e-20
3.04403e-19
4.01483e-19
3.37096e-19
3.66796e-19
6.41884e-19
2.76639e-19
-6.17517e-20
5.87422e-20
1.06379e-20
2.9349e-20
8.1169e-21
-1.8845e-20
1.93142e-21
8.43536e-22
3.49696e-22
1.31432e-22
1.08657e-22
1.35609e-22
8.13431e-23
3.88591e-23
6.46206e-14
-6.49327e-14
5.69985e-14
-3.95701e-14
-1.11673e-13
1.26444e-13
-1.53203e-14
-4.11371e-12
1.52873e-11
5.79493e-12
2.78201e-12
9.70797e-14
-5.0224e-13
-2.899e-13
-7.14386e-33
6.77766e-31
-1.13521e-29
-2.06131e-28
1.28224e-26
-3.18e-25
5.74957e-24
-8.26032e-23
1.41184e-21
-2.40303e-20
4.15697e-19
-6.41662e-18
8.05967e-17
-6.85438e-16
3.35415e-16
5.6968e-14
-5.66327e-13
-9.128e-14
3.26831e-11
6.07621e-12
-1.19717e-09
-6.54902e-09
-9.39068e-09
8.73893e-08
7.06238e-07
2.89392e-06
8.49527e-06
1.87769e-05
3.31666e-05
4.72972e-05
5.65541e-05
6.01554e-05
6.08049e-05
6.10975e-05
6.15746e-05
6.18107e-05
5.92513e-05
4.58652e-05
2.34948e-05
-5.38584e-37
3.46372e-09