/*--------------------------------*- C++ -*----------------------------------*\
  =========                 |
  \\      /  F ield         | OpenFOAM: The Open Source CFD Toolbox
   \\    /   O peration     | Website:  https://openfoam.org
    \\  /    A nd           | Version:  7
     \\/     M anipulation  |
\*---------------------------------------------------------------------------*/
FoamFile
{
    version     2.0;
    format      ascii;
    class       volScalarField;
    location    "0.45";
    object      T;
}
// * * * * * * * * * * * * * * * * * * * * * * * * * * * * * * * * * * * * * //

dimensions      [0 0 0 1 0 0 0];

internalField   nonuniform List<scalar> 
5936
(
0.509388
0.913124
0.999003
0.982342
1.00586
1.01594
1.00206
1.00701
1.00021
1.00101
0.999887
0.999757
0.99995
0.999843
0.999998
0.999979
1
1
0.999999
0.999998
0.999999
0.999996
0.999999
0.999998
1
1
1
1
1
1
1
1
1
1
1
1
1
1
1
1
1
1
1
1
1
1
1
1
1
1
1
1
1
1
1
1
1
1
1
1
1
1
1
1
1
1
1
1
1
1
1
1
1
1
1
1
1
1
1
1
1
1
1
1
1
1
1
1
1
1
1
1
1
1
1
1
1
1
1
0.116255
-0.00308434
-0.000220618
4.08866e-05
-3.18442e-07
4.16369e-07
-5.42864e-09
-1.34974e-08
2.5211e-09
1.34967e-10
-8.17817e-11
-7.42036e-12
2.94804e-13
1.17471e-13
6.32193e-15
-2.17634e-16
-4.48445e-17
-2.64091e-18
3.95566e-20
1.12674e-20
5.82022e-22
1.72177e-24
-1.06141e-24
-5.40577e-26
5.47682e-43
-2.86434e-27
5.15185e-26
9.30133e-24
1.47531e-22
2.37326e-21
3.49959e-20
1.23773e-18
5.66923e-18
7.29604e-17
1.75618e-15
1.25894e-14
1.46954e-14
-6.57291e-14
-3.50218e-12
-7.62785e-12
5.19562e-11
-3.79e-11
1.35403e-10
-1.60387e-09
2.45653e-09
3.33646e-09
9.02306e-11
2.62216e-08
3.48742e-08
5.25174e-08
1
1
1
1
0.999995
0.999997
1.00001
1
1
1
1
1
0.99992
0.99995
1.00008
1
1.00035
1.00029
0.999795
1.00007
0.998585
0.998984
0.999007
0.998749
1.00284
1.00137
1.00818
1.00626
1.00798
1.00803
0.991628
0.997139
0.952706
0.966182
0.887822
0.910145
0.797859
0.826172
0.69203
0.72412
0.571976
0.60772
0.454372
0.488505
0.346271
0.377678
0.253265
0.27967
0.182281
0.202332
0.125418
0.141324
0.083765
0.0952909
0.0546982
0.0625928
0.0344375
0.0398908
0.0212564
0.0247947
0.0128684
0.0150592
0.00758419
0.00895104
0.00434083
0.00517189
0.0024564
0.00293836
0.00133409
0.00161304
0.000727352
0.000879372
0.000387802
0.000472563
0.000199346
0.000245327
0.00010357
0.00012732
5.19254e-05
6.45873e-05
2.548e-05
3.186e-05
1.27717e-05
1.59227e-05
6.14968e-06
7.76821e-06
3.00134e-06
3.80674e-06
1.40315e-06
1.82552e-06
6.80112e-07
8.99829e-07
3.38961e-07
4.54562e-07
1.36464e-07
7.17811e-08
1.88711e-07
-3.75244e-27
4.23826e-08
0.0134562
-0.00159039
6.86279e-05
7.15701e-06
1.00002e-07
1.80906e-07
-3.5344e-08
3.4909e-10
1.15677e-09
-1.1763e-10
-2.97948e-11
-9.41949e-13
2.72662e-13
3.35067e-14
4.77692e-16
-1.30302e-16
-1.24398e-17
-3.08031e-19
3.36555e-20
2.89297e-21
7.74243e-23
-2.71668e-24
-2.68437e-25
-0.000922366
-9.77906e-27
6.03012e-08
-3.25627e-26
-1.07013e-25
-3.85038e-23
-1.0646e-21
-7.05781e-22
-2.98031e-19
-3.72616e-18
-7.74732e-18
-3.9923e-16
-6.03145e-15
-1.61306e-14
-1.39873e-14
8.35827e-13
7.06784e-12
-7.29464e-12
-6.59698e-11
4.2075e-11
5.88476e-10
-1.72489e-09
3.9211e-09
-3.55477e-09
1.32902e-08
3.74262e-08
0.000131141
0.0664675
1.97006e-06
0.457247
0.000144117
3.03864e-05
6.47036e-07
5.31554e-07
-9.82732e-08
-1.0769e-10
3.60609e-09
-3.44991e-10
-1.071e-10
-3.99943e-12
9.4427e-13
1.25837e-13
2.73572e-15
-4.56064e-16
-4.61952e-17
-1.47909e-18
1.16729e-19
1.12491e-20
3.69779e-22
-8.18757e-24
-1.08021e-24
-3.97069e-26
4.5627e-26
-4.26027e-23
-1.03135e-21
1.08242e-21
-2.67659e-19
-3.37487e-18
-6.22742e-18
-3.56036e-16
-5.40155e-15
-1.22943e-14
-3.8985e-14
6.0219e-13
7.17732e-12
-6.42547e-12
-7.57077e-11
5.58131e-11
5.76838e-10
-1.99195e-09
5.18565e-09
-3.84587e-09
1.88116e-08
5.02313e-08
-3.78913e-26
1.14583e-06
2.50351e-09
-4.10896e-08
6.87698e-09
5.13765e-10
-2.79384e-10
-2.75577e-11
8.83467e-13
4.08308e-13
2.62299e-14
-6.04831e-16
-1.69106e-16
-1.08955e-17
5.72897e-20
4.30832e-20
2.41295e-21
2.29973e-23
-3.87155e-24
-2.2276e-25
1.01658e-23
1.21412e-22
2.42794e-21
2.72089e-20
1.103e-18
5.15242e-18
7.05063e-17
1.54e-15
1.09696e-14
1.39248e-14
4.10523e-14
-3.39995e-12
-8.24658e-12
5.68597e-11
-4.6439e-11
2.03749e-10
-1.99841e-09
3.16377e-09
4.05611e-09
1.30572e-09
3.65553e-08
4.92456e-08
-0.00556441
-0.00532447
1.1527e-25
0.596807
-0.00118088
0.957427
1.0026
0.985737
1.00456
1.0082
1.00136
1.00401
0.999967
1.00053
0.999869
0.999793
0.999989
0.999958
1.00002
1.00005
1.00001
1.00003
1
1.00001
0.999998
0.999998
0.999999
0.999998
1
1
1
1
1
1
1
1
1
1
1
1
1
1
1
1
1
1
1
1
1
1
1
1
1
1
1
1
1
1
1
1
1
1
1
1
1
1
1
1
1
1
1
1
1
1
1
1
1
1
1
1
1
1
1
1
1
1
1
1
1
1
1
1
1
1
1
1
1
1
1
3.01327e-25
0.00151946
6.2374e-05
0.260823
-5.70328e-06
6.6133e-08
2.91307e-07
-5.48589e-08
8.34836e-10
2.0803e-09
-8.47979e-12
-3.43554e-11
-3.41848e-12
5.35481e-14
3.25746e-14
1.82584e-15
-3.2038e-17
-1.08119e-17
-6.51496e-19
-3.46896e-21
1.69167e-21
9.43854e-23
1.27812e-24
-9.53598e-26
1.13017e-23
-0.00316852
-0.00458951
-0.00327853
-8.08603e-27
1.02145e-07
1.77136e-07
-3.6776e-06
-8.96165e-06
-1.29433e-06
0.532986
9.20616e-23
4.20169e-21
1.59168e-20
1.31992e-18
8.26846e-18
7.4349e-17
1.87392e-15
1.64537e-14
2.18491e-14
1.86771e-13
-4.6702e-12
-1.61734e-11
8.20288e-11
-3.72919e-11
3.7739e-10
-3.7526e-09
6.67533e-09
4.52354e-09
7.53304e-09
6.60456e-08
7.29168e-08
1.26858e-07
0.0517236
0.189634
0.0225263
-9.55937e-05
-0.000690353
4.39341e-05
1.58752e-05
-6.92719e-06
1
1
0.999998
0.999998
1.00001
1
0.999999
1
0.999997
1
0.999939
0.999946
1.00008
0.999995
1.0003
1.0003
0.999787
1.00013
0.998716
0.998966
0.999255
0.998609
1.00284
1.00101
1.00753
1.00612
1.00649
1.00879
0.990133
1.00048
0.952776
0.972324
0.890795
0.920252
0.801039
0.841689
0.692095
0.736417
0.5746
0.621781
0.456807
0.501376
0.350187
0.389581
0.257651
0.29144
0.184505
0.209798
0.127859
0.147158
0.0863148
0.100507
0.0560379
0.0660491
0.0353339
0.0419018
0.0220867
0.0263307
0.0132056
0.0159702
0.00773541
0.0093989
0.00451077
0.0055147
0.0025292
0.00311285
0.00138329
0.00172145
0.000753543
0.000935632
0.000402055
0.000502637
0.000209683
0.00026547
0.000108591
0.000137218
5.47849e-05
6.9689e-05
2.72674e-05
3.49896e-05
1.34343e-05
1.71674e-05
6.55989e-06
8.43046e-06
3.29536e-06
4.20955e-06
1.63384e-06
2.09874e-06
8.98587e-07
1.16465e-06
0.780431
-5.94238e-26
0.830481
3.4969e-25
-4.96505e-18
-4.50204e-18
4.15239e-05
1.00235e-24
-2.89147e-26
7.6136e-18
7.7109e-07
-1.518e-08
-2.0139e-08
4.10569e-09
4.94604e-10
-6.50036e-11
-1.24317e-11
-5.51734e-13
7.90546e-14
9.2163e-15
2.01166e-16
-2.63002e-17
-3.1584e-18
-9.1232e-20
3.62955e-21
4.64062e-22
1.46614e-23
-1.63879e-25
1.68363e-23
-3.81821e-19
-2.90116e-19
-1.61319e-21
-1.25897e-21
-6.58183e-23
4.37069e-21
-8.36015e-23
3.29307e-21
1.57215e-18
1.43978e-06
-5.91405e-18
-4.15863e-16
-7.23095e-15
-1.8617e-14
-6.82698e-14
4.7174e-13
1.15839e-11
-2.35232e-13
-1.46191e-10
1.35723e-10
5.33085e-10
-2.06635e-09
8.08797e-09
-7.15167e-09
3.78466e-08
8.44891e-08
-1.06636e-07
9.20397e-14
-1.03721e-13
8.38827e-25
-1.10294e-11
4.64639e-07
-8.9951e-11
8.21807e-08
8.20028e-09
6.2609e-09
7.56986e-09
-4.41945e-09
4.68269e-10
-6.37592e-11
1.01964e-10
-1.73664e-11
-5.36669e-12
2.76095e-13
1.68715e-14
-2.81167e-25
7.43239e-24
3.47428e-22
4.57006e-21
-3.68576e-20
-2.42911e-18
-2.90949e-17
-1.95648e-20
6.84998e-15
1.05857e-07
4.51369e-08
-8.43835e-09
1.02533e-08
-3.01324e-09
7.55488e-10
1.43104e-10
-1.65794e-10
-4.64483e-12
1.35222e-11
5.72467e-13
-9.16746e-14
-1.4382e-14
-8.16742e-15
-5.70042e-16
5.39945e-21
1.76575e-26
6.03145e-23
1.53372e-21
6.2906e-21
-4.00158e-19
-9.8203e-18
-6.66356e-17
9.84399e-16
2.9081e-14
1.76082e-13
-2.3137e-12
-3.5595e-11
-1.19277e-10
1.79381e-09
8.05291e-09
-5.8378e-08
7.93958e-08
-6.15776e-18
1.88816e-10
5.5512e-09
-6.06658e-09
8.50602e-07
1.33296e-22
1.66397e-14
2.88612e-20
2.28827e-15
1.06545e-16
8.05818e-05
-5.92985e-18
0.994132
1.00615
1.00363
1.00319
1.00652
1.00017
1.00137
0.999567
0.99932
0.99981
0.999466
0.999986
0.999886
1.00002
1.00003
1.00001
1.00003
1
1.00001
0.999999
0.999998
1
0.999999
1
1
1
1
1
1
1
1
1
1
1
1
1
1
1
1
1
1
1
1
1
1
1
1
1
1
1
1
1
1
1
1
1
1
1
1
1
1
1
1
1
1
1
1
1
1
1
1
1
1
1
1
1
1
1
1
1
1
1
1
1
1
1
1
1
1
1
-3.80039e-19
-1.54415e-11
2.2675e-14
6.4355e-07
5.25206e-23
-7.03811e-19
-9.31657e-14
8.24123e-07
5.37529e-07
1.62529e-06
-4.37474e-08
-2.01348e-08
3.44893e-09
1.37709e-07
5.62568e-10
2.80068e-07
-1.09587e-11
-3.00772e-11
2.26322e-24
-2.73149e-12
-7.04293e-13
-2.34242e-12
-4.44928e-13
1.74747e-07
1.29571e-14
1.49975e-15
4.39462e-17
-3.10909e-18
-3.3603e-19
-1.18817e-20
2.94446e-22
3.91561e-23
-3.62036e-06
-7.6154e-07
1.82606e-09
1.71814e-09
-1.29157e-22
9.62699e-23
1.06277e-17
8.11967e-18
2.27721e-18
7.40226e-21
2.36624e-15
1.58835e-18
1.88234e-18
-6.41181e-18
-1.67098e-21
7.58777e-21
0.00017144
0.000193372
-6.54334e-16
2.93944e-15
1.82196e-21
-4.95778e-19
-9.7073e-15
-1.09352e-14
2.19717e-14
1.54475e-14
5.89185e-13
-5.91009e-12
-3.01266e-11
1.35069e-10
-1.24637e-11
7.4838e-10
-7.64246e-09
1.45498e-08
5.69845e-09
2.59812e-08
8.81186e-08
1.69622e-07
2.41375e-07
3.21419e-08
0.999999
0.999999
1
0.999999
1
1
0.999997
1
0.999953
0.999962
1.00004
0.999973
1.00027
1.00025
0.999926
1.0002
0.9989
0.999159
0.99922
0.998691
1.00213
1.00056
1.00638
1.00511
1.00636
1.0085
0.993556
1.00255
0.96138
0.979463
0.903595
0.932961
0.818708
0.85689
0.712877
0.756289
0.595298
0.643032
0.476189
0.521615
0.368319
0.408273
0.273873
0.30877
0.196564
0.223141
0.136818
0.157736
0.092694
0.107595
0.0610083
0.0715544
0.0385611
0.0459103
0.0238473
0.0283731
0.0144978
0.0174237
0.00857232
0.0104026
0.00495528
0.00603941
0.00280089
0.0034397
0.00154265
0.00191821
0.000828423
0.00103135
0.000445905
0.000556334
0.000237168
0.000298837
0.000122235
0.000154608
6.21238e-05
7.93074e-05
3.08173e-05
3.95495e-05
1.52763e-05
1.95802e-05
7.41177e-06
9.57563e-06
3.68441e-06
4.68618e-06
1.91331e-06
2.4111e-06
9.02592e-11
3.99334e-10
2.24055e-11
1.99551e-07
3.25056e-07
-2.19822e-21
8.45727e-25
-1.84939e-11
-7.44677e-12
-0.00209077
2.45879e-24
0.92558
7.64414e-07
7.40861e-07
1.29814e-24
-1.39894e-14
1.22722e-14
2.24106e-07
4.49303e-09
-1.20996e-07
-5.94513e-08
-6.24744e-08
2.64391e-10
-7.25181e-12
2.89589e-14
5.3388e-15
3.08278e-16
-8.86405e-19
-1.26786e-18
-7.24736e-20
-8.0583e-22
1.41278e-22
1.27577e-23
0.0094725
2.61702e-07
-1.08738e-05
-1.1299e-05
-8.70453e-15
-1.86322e-14
0.959572
8.89386e-21
1.06359e-16
-2.02964e-13
-9.53169e-14
-1.24101e-13
-7.33094e-12
-1.61138e-13
2.03938e-11
1.25625e-11
-3.01961e-10
3.12642e-10
2.43624e-10
-1.85167e-09
1.46775e-08
-1.28522e-08
1.06008e-07
0.0767339
0.0425133
1.15116e-06
2.61805e-22
9.04333e-07
2.9612e-05
-1.95861e-05
2.82472e-08
8.54327e-09
1.67089e-08
-9.10226e-09
9.36808e-10
-5.56349e-11
-1.60055e-22
1.22899e-22
-1.51263e-08
1.86924e-08
-3.36199e-09
-0.00337859
0.000562427
-0.00375686
5.78345e-10
0.684452
3.4254e-10
-3.43515e-10
5.79537e-12
3.83669e-22
-5.99234e-21
-2.51729e-19
-3.41796e-18
1.52203e-17
1.12463e-15
-9.4488e-09
7.92128e-24
-0.000220622
-0.000990807
0.000205357
1.48575e-20
0.78693
5.4959e-24
1.41462e-14
-4.86936e-20
-1.09889e-18
2.9034e-23
-5.84968e-18
5.50364e-09
1.96184e-16
4.80175e-15
1.98325e-23
-1.13258e-15
2.31687e-11
-8.38798e-16
1.2709e-20
1.54444e-16
7.80932e-13
1.7162e-10
-3.31731e-11
0.322933
1.26312e-11
1.0091
1.00853
1.01706
1.00223
1.00743
0.999797
1.00081
0.999655
0.999395
0.999897
0.999686
1.00001
0.999964
1.00002
1.00003
1.00001
1.00002
0.999999
1
0.999999
0.999997
1
0.999998
1
0.999999
1
0.999999
1
0.999999
1
0.999999
1
0.999999
1
0.999999
1
0.999999
1
0.999999
1
0.999999
1
0.999999
1
0.999999
1
0.999999
1
0.999999
1
0.999999
1
0.999999
1
0.999999
1
0.999999
1
0.999999
1
0.999999
1
0.999999
1
0.999999
1
0.999999
1
0.999999
1
0.999999
1
0.999999
1
0.999999
1
0.999999
1
0.999999
1
0.999999
0.999999
0.999999
0.999999
0.999999
0.999999
-2.42082e-06
4.06548e-24
3.16786e-11
-6.8226e-21
1.26687e-12
2.00564e-20
-5.97187e-08
5.97255e-16
5.46279e-07
-7.36916e-23
1.08407e-10
6.70922e-11
-3.1053e-14
-1.10084e-13
-1.06393e-09
-1.09006e-19
3.40114e-07
1.22744e-24
1.49704e-15
1.56741e-15
1.59599e-15
-1.75591e-08
4.84725e-18
-2.73942e-19
-2.80077e-19
-3.09455e-20
-2.31049e-20
-1.76089e-08
-9.14243e-15
-7.52031e-14
1.96306e-09
4.24608e-07
-1.23485e-23
1.31358e-16
0.000166321
3.02795e-15
-5.18925e-19
-4.57412e-13
-3.68387e-13
0.873027
2.02081e-10
-7.64118e-12
3.5837e-11
0.211792
-1.05983e-21
-5.19492e-22
4.12918e-11
2.61268e-10
-2.60789e-22
-3.16058e-22
-6.90892e-23
1.06744e-10
1.29754e-09
-8.7476e-10
8.79604e-10
2.49794e-08
6.01494e-09
-2.21303e-08
1.97671e-07
7.15324e-07
1.28792e-20
3.36378e-20
0.999999
0.999998
1
1.00001
0.999999
1
0.999966
0.999978
1.00001
0.999952
1.00023
1.00019
1.00004
1.00027
0.999059
0.999383
0.999146
0.998749
1.00136
0.999968
1.00543
1.00397
1.00682
1.00818
0.997659
1.00493
0.970514
0.987247
0.917867
0.945824
0.836951
0.874938
0.733454
0.779373
0.616998
0.665973
0.498846
0.545772
0.388576
0.431837
0.290131
0.32719
0.210233
0.238938
0.14749
0.170228
0.100298
0.116432
0.0667295
0.0783463
0.0421866
0.0506171
0.0258165
0.0310159
0.0159603
0.0192458
0.00943766
0.0115324
0.00546105
0.00668883
0.00311858
0.00386025
0.00170712
0.00213785
0.000927113
0.00115972
0.000502719
0.000631241
0.000266584
0.000337176
0.000139929
0.000177569
7.15563e-05
9.17689e-05
3.55573e-05
4.59308e-05
1.77418e-05
2.28625e-05
8.62887e-06
1.1244e-05
4.19075e-06
5.41294e-06
2.03261e-06
2.57156e-06
-1.56525e-13
-1.89021e-13
1.64596e-12
2.83643e-07
3.61661e-07
4.20627e-07
6.82285e-10
1.68321e-09
-1.06102e-05
-9.18235e-06
3.53594e-17
2.28423e-17
7.47394e-08
2.43417e-07
-1.75013e-21
-2.51471e-21
1.35384e-20
-9.15725e-10
-1.05156e-08
2.07257e-09
1.48385e-07
6.01399e-07
-6.83297e-09
-1.50468e-14
-7.20253e-14
-4.7844e-15
1.8903e-23
-4.55512e-21
0.000386158
0.000200542
8.3934e-07
8.56935e-07
2.00896e-18
-1.22209e-20
1.40609e-06
2.97535e-15
7.91008e-10
-3.80451e-12
4.73893e-07
-9.13109e-20
6.94177e-13
2.47113e-23
-5.39224e-08
8.5675e-08
1.66216e-16
-1.09516e-07
-4.22438e-19
1.50608e-06
-6.55251e-12
-3.44709e-12
-5.34293e-08
1.25853e-16
1.44662e-06
3.65289e-08
5.08712e-16
2.57745e-09
1.20699e-09
-8.41946e-06
-1.99706e-05
1.71702e-17
1.78159e-16
0.97501
-1.00721e-15
0.658389
3.62231e-15
-4.24164e-20
-3.53943e-20
-1.86954e-12
3.00377e-14
1.45329e-14
-2.41376e-12
0.739487
-9.24576e-12
9.55843e-09
1.00093
-5.59689e-11
-5.92031e-10
0.0211096
-1.48042e-08
3.04846e-08
4.45506e-10
1.18371e-09
3.57823e-10
1.06511e-17
3.28696e-17
3.53524e-11
1.50598e-23
-7.18912e-18
4.58614e-18
-6.83024e-10
-0.00115434
-0.00019902
-1.43029e-12
-1.26685e-12
-0.00506757
-0.00383954
-1.44207e-14
-1.25432e-14
-6.21601e-11
0.91765
-1.26416e-15
-6.76683e-19
3.23738e-08
-1.26358e-09
4.90153e-11
-1.79421e-08
3.56195e-08
-7.65661e-19
-8.01845e-06
-1.02451e-10
1.00927
1.00429
1.00996
1.0005
1.00288
0.999621
0.999813
0.999766
0.99951
0.999957
0.999819
1.00002
0.999999
1.00001
1.00003
1
1.00001
0.999997
0.999998
0.999997
0.999996
0.999998
0.999997
0.999998
0.999998
0.999998
0.999998
0.999998
0.999998
0.999998
0.999998
0.999998
0.999998
0.999998
0.999998
0.999998
0.999998
0.999998
0.999998
0.999998
0.999998
0.999998
0.999998
0.999998
0.999998
0.999998
0.999998
0.999998
0.999998
0.999998
0.999998
0.999998
0.999998
0.999998
0.999998
0.999998
0.999998
0.999998
0.999998
0.999998
0.999998
0.999998
0.999998
0.999998
0.999998
0.999998
0.999998
0.999998
0.999998
0.999998
0.999998
0.999998
0.999998
0.999998
0.999998
0.999999
0.999998
0.999999
0.999997
0.705216
1.30005e-06
1.627e-17
-1.6509e-13
3.9374e-19
-1.1907e-15
1.80222e-16
6.97815e-07
1.30128e-06
-1.13829e-09
-1.64388e-15
-6.79369e-08
8.80595e-11
-1.04605e-20
1.95794e-07
1.44286e-09
5.80089e-08
-5.76043e-08
0.323259
-2.59062e-20
-2.63997e-20
-6.09856e-12
6.14343e-08
-1.20028e-14
-6.81217e-15
-8.10148e-21
-4.47811e-20
-2.79317e-08
3.08075e-10
2.6133e-10
3.16009e-18
1.89833e-18
1.8874e-18
-1.50142e-19
-1.00376e-18
2.9974e-09
-0.00929557
0.00117511
-7.28226e-22
-2.79034e-21
-8.75815e-21
-2.09411e-21
2.83268e-10
-1.30553e-09
-4.99861e-09
-3.35048e-08
0.0676589
1.09376e-10
3.92635e-10
2.06885e-18
-0.00541543
0.000585061
-6.66529e-18
0.0712045
0.0315683
0.109767
1.07016e-08
7.28535e-08
0.882953
0.720368
2.03516e-09
-4.97646e-09
2.31515e-16
3.50526e-16
1.00001
1
1.00001
0.999977
0.999989
0.999975
0.999925
1.00019
1.00011
1.00014
1.00032
0.999281
0.999642
0.999152
0.998914
1.0006
0.999381
1.00439
1.00272
1.00713
1.00758
1.00137
1.00712
0.979788
0.994114
0.933797
0.959915
0.858107
0.896378
0.758399
0.805187
0.645236
0.694758
0.526209
0.576051
0.412782
0.458589
0.312316
0.35227
0.227116
0.259435
0.160473
0.185602
0.110129
0.12835
0.0733409
0.0865607
0.0471753
0.0565517
0.0292063
0.0352756
0.0178999
0.0216706
0.0106685
0.0130659
0.00620643
0.00762972
0.00354409
0.00439362
0.00196959
0.00247159
0.00106951
0.00135082
0.000577788
0.000731806
0.000311629
0.000394959
0.00016463
0.000210358
8.40355e-05
0.000108427
4.28893e-05
5.55704e-05
2.12984e-05
2.78838e-05
1.04085e-05
1.37833e-05
5.13092e-06
6.87458e-06
2.27058e-06
5.26342e-05
0.000174468
1.22749e-05
-1.52962e-05
-1.94944e-05
4.30517e-20
-1.50502e-19
6.32462e-17
5.08578e-17
-1.76597e-08
2.19785e-07
4.69265e-11
-1.15229e-10
-5.85144e-13
2.78126e-09
-3.64565e-12
-1.95771e-16
-1.48999e-08
-1.23712e-21
-2.61437e-08
6.006e-07
1.48517e-19
-0.0110107
-0.00772806
-6.82129e-18
3.21991e-06
6.69097e-07
7.78965e-07
3.79439e-10
4.71179e-10
0.18927
1.15732e-17
6.40822e-11
1.76368e-11
1.6885e-09
5.24807e-07
3.58434e-07
2.54009e-14
-2.56165e-13
5.35233e-08
4.0356e-08
-9.801e-12
-7.95845e-12
7.97009e-17
1.65089e-05
-1.35418e-05
8.39628e-09
1.06388e-16
2.04133e-16
-2.01581e-15
-6.85367e-07
-6.52816e-14
-5.32028e-14
1.70528e-16
3.90985e-15
2.71667e-14
7.28813e-10
7.90638e-10
1.00726
0.992244
-5.18218e-22
1.92758e-18
1.02376e-10
-2.31743e-22
-4.47858e-22
-2.35133e-21
0.239597
7.80368e-09
-5.08343e-06
2.03956e-18
-4.64638e-08
-9.91718e-08
-4.32743e-08
1.00001
0.999999
2.3272e-12
3.0232e-12
-7.24149e-12
4.97276e-15
1.00931e-06
1.0405e-06
1.23492e-06
-0.000322888
7.2327e-18
-6.42747e-18
1.1902e-16
-6.14133e-14
-4.37804e-14
4.34893e-07
-0.00301203
-0.00762411
-0.00187686
-8.81212e-13
-1.19738e-12
-5.96016e-18
2.34671e-20
2.53161e-20
7.16932e-20
-9.96677e-09
-2.17944e-09
5.42654e-11
5.21339e-07
-1.82767e-14
-1.67199e-14
0.926392
7.51636e-07
-4.71627e-18
3.89673e-08
1.00652
1.0016
1.0051
0.999788
1.00058
0.999641
0.999496
0.999872
0.999662
1
0.999939
1.00002
1.00003
1.00001
1.00003
1
1.00001
1
1
1
1
1
1.00001
1
1.00001
1
1.00001
1
1.00001
1
1.00001
1
1.00001
1
1.00001
1
1.00001
1
1.00001
1
1.00001
1
1.00001
1
1.00001
1
1.00001
1
1.00001
1
1.00001
1
1.00001
1
1.00001
1
1.00001
1
1.00001
1
1.00001
1
1.00001
1
1.00001
1
1.00001
1
1.00001
1
1.00001
1
1.00001
1
1.00001
1.00001
0.461913
0.999999
-6.15591e-06
1.37483e-09
1.10501e-08
8.66572e-07
1.56295e-18
6.11291e-08
-9.44739e-17
-2.24318e-13
-1.23094e-18
-1.98026e-09
1.36469e-09
0.441637
1.84533e-17
1.89886e-18
1.62583e-18
-2.19887e-18
2.63761e-10
-2.12865e-09
2.40285e-09
-2.63529e-14
4.28432e-07
5.66611e-15
8.88093e-07
1.23468e-12
9.672e-12
-6.08144e-13
4.18675e-20
0.000193121
0.000256872
0.480209
3.1853e-19
1.94007e-19
0.980043
5.84902e-18
4.61056e-18
6.5201e-11
0.145561
3.72051e-14
3.08296e-14
7.26627e-14
-5.76564e-13
-1.85928e-13
0.380168
1.37918e-06
1.0195e-13
-3.37562e-12
7.52956e-11
1
1.0092
1.01153
1.00152
2.37e-10
3.70847e-10
-2.28751e-09
-4.70153e-08
3.93196e-08
0.811421
0.89862
0.516607
1.20015e-07
8.30057e-08
7.41061e-10
7.04248e-11
1.33843e-09
-1.42429e-08
-5.79351e-08
-1.14121e-15
-6.32645e-16
0.999987
0.999945
0.999928
1.00011
1.00003
1.00022
1.00032
0.999558
0.999886
0.999219
0.999139
0.999821
0.998868
1.00309
1.00147
1.00691
1.0065
1.00428
1.00852
0.988224
0.999738
0.949427
0.972834
0.881262
0.916964
0.788342
0.832228
0.676983
0.72832
0.557136
0.608774
0.443312
0.49056
0.339079
0.381576
0.249028
0.28354
0.178419
0.205618
0.122555
0.143374
0.0823013
0.0966184
0.0540862
0.0644197
0.0334438
0.0406278
0.020471
0.0247622
0.0123464
0.0151476
0.00714178
0.00886565
0.00410393
0.00509773
0.0023261
0.00292536
0.00126745
0.00160298
0.000696219
0.000879322
0.00037565
0.000477915
0.000197313
0.000251298
0.000103403
0.000133616
5.24741e-05
6.83496e-05
2.70066e-05
3.51493e-05
1.37839e-05
1.82635e-05
7.01149e-06
9.49328e-06
1.93924e-06
2.14216e-06
3.2647e-06
-3.91016e-19
-1.56605e-18
2.76932e-17
4.01309e-17
4.59909e-07
1.07764e-06
-1.71381e-10
2.41503e-10
2.48227e-09
-1.61795e-08
-3.27288e-08
1.15933e-18
-2.12195e-05
-1.38379e-05
-1.57008e-13
-1.46839e-13
2.30439e-09
3.28287e-09
2.68956e-09
3.20763e-10
1.44207e-10
5.30835e-07
2.3474e-12
1.23586e-12
3.05084e-18
-8.19029e-14
-7.42285e-14
1.70949e-17
0.227186
1.79778e-20
-1.66764e-22
-1.89329e-10
8.01979e-05
3.32414e-05
1.09933e-06
1.13808e-06
-4.57703e-13
-0.00126066
1.1842e-06
-2.43539e-15
6.16797e-15
1.47126e-06
1.73076e-06
-6.34517e-15
5.28305e-10
1.44765e-07
-1.22084e-10
3.10517e-10
4.28884e-20
1.08317e-21
4.80754e-20
-5.2088e-08
-7.3735e-08
1
1.05031e-17
-3.04184e-15
0.0898449
0.0176228
-1.35728e-11
-4.43693e-12
4.59085e-06
0.000143063
0.000315284
9.09972e-05
2.06962e-16
7.9216e-17
-5.46274e-18
-3.02193e-17
2.93501e-16
-0.00493141
-0.00382024
-2.09645e-14
-1.89563e-14
2.58303e-07
3.24869e-08
7.64546e-20
1.28062e-19
-4.39581e-19
-1.25003e-05
-4.04744e-06
3.56394e-09
-2.05733e-14
5.29968e-13
4.19714e-13
-4.31091e-15
1.62513e-18
-1.88247e-14
1.00315
1.00033
1.00207
0.999619
0.999795
0.999766
0.999531
0.999956
0.999815
1.00002
0.999996
1.00002
1.00003
1.00001
1.00002
1.00001
1.00001
1.00001
1
1.00001
1
1.00001
1.00001
1.00001
1.00001
1.00001
1.00001
1.00001
1.00001
1.00001
1.00001
1.00001
1.00001
1.00001
1.00001
1.00001
1.00001
1.00001
1.00001
1.00001
1.00001
1.00001
1.00001
1.00001
1.00001
1.00001
1.00001
1.00001
1.00001
1.00001
1.00001
1.00001
1.00001
1.00001
1.00001
1.00001
1.00001
1.00001
1.00001
1.00001
1.00001
1.00001
1.00001
1.00001
1.00001
1.00001
1.00001
1.00001
1.00001
-2.05213e-18
-7.82538e-08
-9.57443e-18
-5.96819e-16
2.16065e-05
3.24338e-06
8.64138e-11
1.20529e-07
4.87092e-09
-0.000373045
0.000170343
2.31611e-06
5.03894e-06
2.66108e-06
3.3123e-06
3.88443e-06
2.10454e-18
2.8728e-18
8.46821e-08
4.24091e-10
2.29616e-07
1.21944e-07
1.11359e-07
2.76781e-07
-7.08013e-22
0.999955
-2.5129e-15
-1.89471e-15
1.00005
0.999981
1.00025
1.00026
0.999781
1.00008
0.999279
0.999375
0.999099
0.99859
1.00193
1.00033
1.00652
1.0053
1.0065
1.00877
0.995272
1.00424
0.964407
0.983481
0.904954
0.937861
0.816987
0.860429
0.712379
0.76125
0.593253
0.646419
0.475649
0.52458
0.3698
0.412918
0.274142
0.312374
0.197539
0.226881
0.138393
0.161335
0.0924912
0.109056
0.0615444
0.0727114
0.0388041
0.0470373
0.0235181
0.0286831
0.0143353
0.0174565
0.00847392
0.0104853
0.00484142
0.00601954
0.00280083
0.00347897
0.00153709
0.00195053
0.000836252
0.00106102
0.000455086
0.000579353
0.000237176
0.000305072
0.000126084
0.000160788
6.59202e-05
8.47944e-05
3.42007e-05
4.40163e-05
1.87007e-05
2.40482e-05
1.04032e-05
7.23597e-06
1.41943e-05
3.52176e-12
-1.61592e-11
7.32407e-07
-9.78788e-07
1.87524e-06
-1.09037e-16
-6.3158e-17
1.8019e-06
2.85069e-06
5.00425e-10
6.78661e-10
-0.0074235
-0.00937812
-3.61897e-08
-9.96019e-08
-1.14819e-08
1.09193e-07
-3.25771e-08
-1.25381e-08
3.63182e-09
6.11616e-09
-1.24054e-21
-1.55558e-21
-2.57736e-22
0.800147
-1.79249e-13
1.00668
1.39216e-18
1.95019e-18
1.00001
1.00743
1.0082
1.3634e-10
5.05778e-11
-7.24702e-09
4.61054e-12
0.999957
6.98353e-12
-1.6156e-18
-1.98658e-08
-1.69577e-15
-2.52698e-14
1.15544e-07
1.00001
1.01124
5.40231e-12
1.65733e-12
-0.00306835
1.738e-12
-6.50126e-13
0.0001698
0.00011116
1.14787e-06
-2.38255e-14
-4.24533e-16
-3.98968e-09
-3.37739e-09
5.82924e-19
-0.00162041
6.71307e-15
-2.66456e-14
-2.91612e-10
-2.66688e-10
-8.57888e-15
1.47248e-18
7.10181e-21
1.04871e-06
7.97062e-20
-2.34299e-09
-6.20285e-08
0.967021
0.990013
0.880758
5.64997e-08
7.38778e-09
-1.9556e-14
0.406815
0.525811
0.186207
-3.04586e-09
-1.69886e-09
1.01209e-13
-7.30604e-15
-3.91081e-15
-4.77138e-15
7.22985e-15
1.16851e-11
1.01146e-10
-4.20647e-16
-1.21376e-05
-1.76335e-05
-2.88617e-17
0.000257551
0.00023459
5.20563e-10
1.28884e-11
9.04135e-12
1.19647e-06
3.31437e-14
4.5844e-14
-0.00714398
-0.00703026
9.39817e-10
-9.72991e-19
-2.68103e-18
-1.61468e-09
-3.68905e-10
1.16912e-19
2.1374e-19
-1.12083e-18
3.67335e-09
-1.05728e-12
2.15497e-12
1.87808e-06
9.95696e-07
2.58242e-09
4.58028e-19
2.16401e-06
-4.03448e-08
2.58274e-07
2.62829e-13
1.11888e-12
1.26058e-13
1.00543
5.83651e-12
4.43181e-12
1.00131
1.00409
0.999722
1.00041
0.999628
0.999476
0.999859
0.99965
0.999987
0.999906
1.00001
0.999996
0.999995
0.999994
0.999987
0.999977
0.999984
0.999969
0.999984
0.999966
0.999984
0.999967
0.999985
0.999967
0.999985
0.999968
0.999985
0.999969
0.999985
0.999969
0.999987
0.99997
0.999986
0.99997
0.999986
0.999969
0.999985
0.999967
0.999985
0.999969
0.999985
0.999969
0.999985
0.999969
0.999984
0.999968
0.999984
0.999967
0.999985
0.999968
0.999985
0.999969
0.999985
0.999968
0.999985
0.999969
0.999985
0.999969
0.999985
0.999968
0.999983
0.999968
0.99998
0.999965
0.999973
0.999953
0.99996
-2.06305e-15
-7.87075e-08
1.00185
-4.87118e-17
1.02857e-07
0.000429897
-7.13673e-17
3.30589e-14
5.60559e-14
-5.31343e-21
1.72966e-19
-2.29705e-15
-3.71368e-15
-2.65763e-11
1.01137e-11
-3.51788e-10
1.51535e-19
-5.41008e-09
-6.61046e-09
-9.20124e-08
3.53498e-06
3.65697e-18
-9.88983e-19
-3.7048e-19
9.91282e-20
3.6762e-07
1.03218e-06
2.79593e-07
-2.23797e-16
-1.62676e-16
1.86435e-13
4.12144e-07
1.58511e-07
2.25063e-06
4.3205e-06
0.999997
0.999954
6.91697e-16
4.98259e-16
1.00022
1.00017
0.999953
1.00016
0.999445
0.99961
0.998768
0.998622
1.00102
0.999741
1.00555
1.00405
1.00705
1.00783
0.999982
1.00652
0.975745
0.99128
0.925656
0.953057
0.846243
0.884766
0.745221
0.79022
0.630356
0.680515
0.510075
0.559808
0.399275
0.443472
0.3017
0.34022
0.219827
0.250298
0.155057
0.178683
0.10532
0.123396
0.0696016
0.0820114
0.0445641
0.053212
0.0277295
0.0334817
0.0166386
0.0202704
0.00994665
0.0121381
0.00580444
0.00717981
0.0032939
0.00408446
0.0018575
0.00232126
0.00102807
0.00129264
0.000552904
0.000696545
0.000294356
0.000375414
0.000154435
0.000197707
8.07549e-05
0.000103541
4.25901e-05
5.41518e-05
2.33823e-05
2.86454e-05
1.70562e-14
5.4006e-15
3.18337e-10
-6.38923e-09
-0.0050976
-0.00953234
-1.13366e-07
2.83839e-07
4.48936e-07
2.648e-06
-1.04811e-08
7.53968e-09
-5.04448e-09
1.00993
1.0101
-4.76372e-17
-3.11257e-11
3.40627e-12
2.54052e-07
2.42236e-18
-4.19974e-09
-1.43839e-07
4.66237e-12
4.98617e-12
1.01004
1.63011e-05
4.10865e-11
1.45915e-13
8.84445e-14
-0.00201944
2.35599e-13
3.92447e-13
-1.41468e-12
1.88439e-11
4.61294e-07
-3.35031e-08
2.20004e-11
-8.02612e-16
-0.000342658
9.92746e-11
-3.83853e-10
7.82259e-14
1.07599e-19
-9.14525e-07
-1.96066e-15
-8.94158e-18
0.97733
0.948339
9.24541e-09
0.415645
5.94785e-06
8.69807e-06
-3.93828e-16
8.41279e-09
7.88876e-09
5.47935e-06
4.39839e-06
8.05434e-18
1.16455e-17
-1.00708e-16
0.0315322
5.11692e-07
9.78082e-09
-2.79288e-14
4.62558e-14
-5.9359e-15
9.49247e-10
-3.25367e-17
-7.26888e-09
0.0094332
0.77553
0.856435
0.520653
-6.55321e-16
0.120649
-8.1647e-09
-1.5543e-15
-7.06851e-15
5.06652e-06
6.38809e-06
7.45678e-06
0.000297517
0.000350351
-2.42793e-05
-1.10098e-05
1.33404e-11
9.60016e-05
-3.59567e-18
8.59207e-19
-1.85474e-06
-0.0052241
5.03314e-07
-0.00840643
-0.00933658
1.93342e-07
5.14749e-08
1.74678e-08
-1.38064e-10
3.37136e-11
0.000304605
0.000273602
-1.81105e-08
-8.08281e-06
-5.64541e-06
-5.40227e-18
6.25096e-10
1.02682e-09
-7.96214e-09
-8.9611e-09
1.66203e-11
8.28216e-12
-5.48033e-11
-4.69919e-11
1.00834
-8.3135e-06
-1.36175e-07
1.00284
1.00693
1.00004
1.00146
0.999515
0.999539
0.999736
0.999487
0.999929
0.999812
0.999988
0.999973
0.999982
0.999998
0.999969
0.99998
0.999961
0.999968
0.999959
0.999958
0.999958
0.999959
0.999959
0.999956
0.999959
0.999957
0.999958
0.999956
0.99996
0.999955
0.999959
0.999956
0.999959
0.999957
0.99996
0.999958
0.99996
0.999958
0.99996
0.999959
0.99996
0.999956
0.99996
0.999958
0.999959
0.999958
0.999959
0.999957
0.99996
0.999958
0.999958
0.999959
0.99996
0.999956
0.99996
0.999958
0.99996
0.999958
0.999956
0.999957
0.99995
0.999959
0.999952
0.999978
0.999967
-1.89655e-08
1.49949e-07
0.203942
0.000174071
7.84681e-13
5.18224e-13
-2.74363e-18
-2.2716e-18
1.23275e-14
6.21084e-07
9.6352e-07
1.77642e-09
-1.90286e-16
4.39466e-11
1.08782e-10
9.50162e-09
-3.18254e-16
-3.67434e-16
1.31669e-05
1.03786e-15
1.40356e-15
-1.73272e-15
8.83464e-15
8.26039e-15
-7.40733e-18
-5.77277e-18
7.83862e-12
-3.76198e-09
-1.37267e-09
9.09188e-08
1.49498e-07
7.03633e-06
4.20429e-05
-5.39321e-06
1.67955e-08
1.36866e-08
-1.62371e-07
-1.89376e-07
-2.27402e-17
-1.77448e-17
1.00018
1.0001
1.00006
1.00021
0.999589
0.999808
0.998668
0.998783
1.00051
0.99936
1.00463
1.00295
1.00686
1.00673
1.00362
1.00795
0.985686
0.997692
0.942092
0.966477
0.869853
0.905318
0.774525
0.817891
0.661074
0.71061
0.542236
0.591239
0.429716
0.473794
0.327365
0.367194
0.239311
0.271566
0.170602
0.19587
0.116853
0.13618
0.077793
0.0910776
0.0502745
0.0598054
0.0313668
0.037652
0.0191289
0.0231654
0.0114469
0.0139591
0.00668962
0.00822905
0.0038459
0.00474203
0.00218692
0.00271794
0.00120328
0.00150409
0.000650229
0.000818844
0.000347528
0.000440801
0.000184377
0.000233344
9.91663e-05
0.000126705
5.13009e-05
6.6489e-05
2.60176e-05
3.36257e-05
7.16948e-14
4.98957e-14
4.97459e-11
7.61078e-11
5.02164e-11
-0.00384546
-0.00121931
7.13587e-07
1.71649e-07
-8.53324e-09
1.78223e-08
0.00343698
-0.005474
5.95314e-07
8.79004e-07
4.94015e-06
8.5382e-06
-2.83499e-08
-1.88564e-07
0.988887
-3.04873e-09
2.41482e-08
-1.02985e-08
6.64942e-07
-1.86433e-05
-2.73518e-05
-2.04722e-05
6.51519e-07
-2.89968e-11
-3.02696e-12
-1.5102e-05
-2.04965e-12
-2.68969e-12
5.71192e-12
2.85517e-13
2.16763e-13
-2.14402e-11
1.63074e-06
1.4112e-06
4.29788e-07
0.141513
-0.00865828
-4.46018e-10
1.91675e-09
1.01091
-4.73375e-18
1.64668e-05
6.91445e-15
1.01309e-15
1.53018e-10
-3.21437e-10
4.72815e-11
-2.63743e-08
0.0278311
6.98669e-07
1.25682e-16
-8.92189e-11
-7.52397e-11
9.45655e-13
-2.75044e-14
0.00025438
-0.000275232
0.000522215
-1.50361e-17
1.31356e-13
1.35894e-12
-1.69255e-10
-1.18298e-10
-2.9042e-09
2.664e-09