/*--------------------------------*- C++ -*----------------------------------*\
  =========                 |
  \\      /  F ield         | OpenFOAM: The Open Source CFD Toolbox
   \\    /   O peration     | Website:  https://openfoam.org
    \\  /    A nd           | Version:  7
     \\/     M anipulation  |
\*---------------------------------------------------------------------------*/
FoamFile
{
    version     2.0;
    format      ascii;
    class       volScalarField;
    location    "0.3";
    object      T;
}
// * * * * * * * * * * * * * * * * * * * * * * * * * * * * * * * * * * * * * //

dimensions      [0 0 0 1 0 0 0];

internalField   nonuniform List<scalar> 
5936
(
0.509388
0.913123
0.999004
0.982343
1.00586
1.01594
1.00206
1.00701
1.00021
1.00101
0.999884
0.999749
0.999947
0.999837
0.999996
0.999976
1
1
1
1
0.999998
0.999997
0.999999
0.999998
0.999999
0.999999
0.999999
0.999999
0.999999
0.999999
0.999999
0.999999
0.999999
0.999999
0.999999
1
0.999999
1
0.999999
0.999999
0.999999
0.999999
0.999999
1
0.999999
0.999999
0.999999
1
0.999999
1
1
1
1
1
0.999999
0.999999
0.999999
0.999999
0.999999
1
0.999999
0.999999
0.999999
0.999999
0.999999
0.999999
0.999999
0.999999
0.999999
0.999999
0.999999
1
0.999999
0.999999
0.999999
0.999999
0.999999
0.999999
0.999999
0.999999
0.999999
0.999999
0.999999
1
0.999999
1
0.999999
1
0.999999
0.999999
0.999999
1
0.999999
1
0.999995
0.999997
0.999992
1.00001
0.999999
0.116255
-0.00308411
-0.000221021
4.05883e-05
2.28501e-07
3.32756e-07
4.5733e-08
-2.45088e-09
-1.31304e-09
-1.1475e-10
-4.95974e-13
5.22181e-13
3.30582e-14
3.48255e-16
-4.88491e-17
-3.28058e-18
-6.70207e-20
1.8413e-21
1.52739e-22
3.74888e-24
-3.63108e-30
-3.08941e-27
-1.05825e-28
-1.6878e-30
6.53301e-48
2.36667e-32
2.34435e-30
4.31143e-28
4.22234e-27
-1.4199e-25
3.89047e-25
-6.74043e-23
-9.20799e-22
6.6448e-22
-5.76083e-20
-2.90791e-19
1.55324e-18
-1.25321e-16
-4.87668e-16
-1.05486e-15
-8.45283e-16
5.50884e-15
-5.19816e-15
-7.74927e-14
3.08262e-13
9.55547e-14
6.11701e-13
1.73212e-12
1.58608e-12
1.95335e-12
0.999994
1.00004
0.999877
0.999881
1.00023
0.999987
1.00046
1.00067
0.998642
0.999442
0.999036
0.998736
1.00142
0.999834
1.00965
1.00675
1.01388
1.01401
0.986899
0.997829
0.913336
0.937821
0.799262
0.835994
0.658305
0.702343
0.514771
0.557522
0.380731
0.419621
0.266217
0.298541
0.179084
0.203463
0.114372
0.13237
0.0706738
0.0823907
0.0430606
0.0503371
0.0245051
0.0292176
0.0136595
0.0163937
0.00733705
0.00892203
0.00378811
0.00465463
0.00199799
0.0024455
0.00100041
0.001244
0.000491547
0.000615358
0.000239786
0.000300573
0.000112522
0.000142699
5.25194e-05
6.68512e-05
2.43131e-05
3.0925e-05
1.0997e-05
1.40795e-05
4.83471e-06
6.24301e-06
2.12542e-06
2.74802e-06
8.91248e-07
1.16359e-06
3.81698e-07
4.96707e-07
1.60224e-07
2.09885e-07
6.43883e-08
8.51026e-08
2.65317e-08
3.49413e-08
1.04894e-08
1.39822e-08
4.06837e-09
5.4407e-09
1.6382e-09
2.18104e-09
6.30377e-10
8.49959e-10
2.48859e-10
3.36144e-10
9.40652e-11
1.304e-10
3.72695e-11
5.26458e-11
1.59624e-11
2.29622e-11
5.75406e-12
2.80853e-12
8.46669e-12
-5.95796e-33
1.84833e-12
0.0134574
-0.00159227
6.87001e-05
7.49515e-06
2.12021e-07
1.69938e-07
5.34143e-09
-2.45351e-09
-4.73063e-10
-1.81634e-11
1.04871e-12
1.58246e-13
4.80986e-15
-8.38598e-17
-1.47958e-17
-5.66428e-19
-1.20264e-21
6.44213e-22
2.73719e-23
3.53211e-25
-1.0236e-26
-6.32367e-28
-1.47441e-29
-0.000923803
-1.54679e-31
2.72896e-12
-1.28515e-30
-4.98821e-29
-9.29773e-28
-7.35942e-27
3.34287e-25
6.65395e-24
3.44016e-22
5.58518e-22
7.66534e-21
2.42734e-19
-1.18135e-18
2.29755e-17
3.09901e-16
6.7758e-16
1.51646e-15
-4.33413e-15
6.756e-15
-1.47321e-14
1.13148e-13
1.93958e-13
-1.27839e-14
1.3422e-12
1.93835e-12
0.000131481
0.066468
3.1937e-06
0.457247
0.000144405
3.15068e-05
1.02151e-06
5.93116e-07
2.23646e-08
-8.5454e-09
-1.69539e-09
-7.83891e-11
3.23597e-12
5.98426e-13
2.23846e-14
-1.87169e-16
-5.68793e-17
-2.49058e-18
-2.03054e-20
2.47088e-21
1.23404e-22
1.97299e-24
-3.18193e-26
-2.76345e-27
-7.16877e-29
-8.54698e-31
-4.35315e-29
-7.98024e-28
-8.77354e-27
4.81489e-25
7.69487e-24
4.00364e-22
8.17302e-22
8.73677e-21
2.52126e-19
-1.8053e-18
2.25675e-17
3.61561e-16
8.00835e-16
1.84301e-15
-5.45431e-15
8.96237e-15
-2.37319e-14
1.68072e-13
2.85864e-13
4.40864e-14
1.94282e-12
2.75848e-12
-1.57343e-30
1.07665e-06
1.70273e-07
-8.61347e-09
-4.26641e-09
-4.49266e-10
-4.63709e-12
1.74679e-12
1.38617e-13
2.08529e-15
-1.68066e-16
-1.3555e-17
-3.38238e-19
5.8736e-21
6.23677e-22
1.83509e-23
8.28664e-26
-1.22231e-26
-4.81579e-28
-8.58802e-30
4.85424e-28
3.38955e-27
-1.85046e-25
4.76949e-25
-7.82077e-23
-1.13887e-21
5.06245e-22
-5.83493e-20
-2.63346e-19
3.57341e-18
-1.42866e-16
-5.79169e-16
-1.25653e-15
-1.19754e-15
7.4047e-15
-7.73606e-15
-9.4447e-14
4.33418e-13
1.43499e-13
9.18918e-13
2.51743e-12
2.3749e-12
-0.0055642
-0.00532756
2.0549e-30
0.596807
-0.00117555
0.957421
1.0026
0.985732
1.00455
1.00821
1.00136
1.00403
0.999981
1.00056
0.999886
0.999825
1
0.999981
1.00003
1.00006
1.00002
1.00005
1.00001
1.00002
1.00001
1.00001
1.00001
1.00001
1.00001
1.00002
1.00001
1.00002
1.00001
1.00002
1.00001
1.00002
1.00001
1.00002
1.00001
1.00002
1.00001
1.00002
1.00001
1.00002
1.00001
1.00002
1.00001
1.00002
1.00001
1.00002
1.00001
1.00002
1.00001
1.00002
1.00001
1.00002
1.00001
1.00002
1.00001
1.00002
1.00001
1.00002
1.00001
1.00002
1.00001
1.00002
1.00001
1.00002
1.00001
1.00002
1.00001
1.00002
1.00001
1.00002
1.00001
1.00002
1.00001
1.00002
1.00001
1.00002
1.00001
1.00002
1.00001
1.00002
1.00001
1.00002
1.00001
1.00002
1.00001
1.00002
1.00001
1.00002
1.00001
1.00002
1.00003
1.00003
1.00003
1.00001
1.00003
2.7365e-30
0.00151962
6.12273e-05
0.260823
-4.85609e-06
-4.85612e-07
2.48388e-07
3.28896e-08
4.01245e-10
-3.2536e-10
-2.63805e-11
-3.90834e-13
7.46207e-14
4.4359e-15
8.67882e-17
-3.70913e-18
-3.42234e-19
-8.80739e-21
4.03879e-23
1.13169e-23
3.63406e-25
3.43249e-27
-1.36889e-28
-6.00543e-30
7.03923e-28
-0.00316599
-0.0045848
-0.00327203
-1.91033e-31
4.95464e-12
8.9729e-12
-3.43956e-06
-8.65142e-06
-2.27926e-06
0.532987
1.92437e-27
-2.63083e-25
9.63856e-25
-9.87657e-23
-1.95787e-21
7.19998e-22
-7.02403e-20
-5.62574e-19
9.32648e-18
-2.0017e-16
-1.02883e-15
-2.22365e-15
-3.29483e-15
1.59166e-14
-2.06712e-14
-1.29578e-13
7.66454e-13
2.02569e-13
2.01777e-12
4.53937e-12
3.70522e-12
6.8679e-12
0.0517201
0.189631
0.0225273
-9.19291e-05
-0.00068495
4.32053e-05
1.50471e-05
-6.64768e-06
0.99991
0.999882
1.00017
1.00003
1.00046
1.0007
0.998942
0.999412
0.99924
0.998569
1.00095
0.99887
1.0094
1.0065
1.0136
1.01683
0.986514
1.00536
0.913149
0.950529
0.800814
0.850234
0.664688
0.721892
0.519598
0.576295
0.38407
0.43337
0.271454
0.311898
0.182426
0.212381
0.118327
0.139572
0.0733123
0.0880811
0.0434859
0.0525942
0.0251233
0.0308587
0.0140238
0.01733
0.00758692
0.00946434
0.00396553
0.00502614
0.00206885
0.00260733
0.00104673
0.0013325
0.000526171
0.000673951
0.000253044
0.000327392
0.000118564
0.000153999
5.68427e-05
7.36729e-05
2.57485e-05
3.38803e-05
1.14829e-05
1.51337e-05
5.21311e-06
6.87945e-06
2.25569e-06
2.99351e-06
9.54613e-07
1.28072e-06
4.09911e-07
5.45287e-07
1.71597e-07
2.29645e-07
7.01568e-08
9.51412e-08
2.87862e-08
3.87905e-08
1.14479e-08
1.55279e-08
4.53301e-09
6.19497e-09
1.78415e-09
2.42047e-09
6.98492e-10
9.52804e-10
2.86232e-10
3.86967e-10
1.16741e-10
1.58325e-10
5.44814e-11
7.46148e-11
0.780432
-3.25874e-30
0.830477
2.73833e-30
7.74025e-22
5.48812e-22
3.92263e-05
-1.02969e-29
-2.05589e-30
-2.54888e-21
3.43366e-07
1.0294e-07
7.44892e-09
-5.93491e-10
-1.05308e-10
-4.89076e-12
1.41006e-13
2.06193e-14
7.47123e-16
-6.88107e-19
-1.34961e-18
-6.18484e-20
-8.27365e-22
4.05379e-23
2.24876e-24
4.52195e-26
-1.89548e-28
-3.52051e-29
9.51601e-28
1.27798e-23
6.8622e-24
-2.60117e-26
-2.78191e-26
-1.0386e-27
-3.99786e-25
-1.03028e-27
9.73895e-25
-1.47396e-22
4.90048e-07
2.00255e-21
1.06554e-20
3.57387e-19
-2.77083e-18
1.91583e-17
5.89681e-16
1.44851e-15
3.42845e-15
-8.01139e-15
1.18696e-14
-5.04914e-14
3.9857e-13
4.15358e-13
2.16678e-13
3.63831e-12
4.7953e-12
9.99241e-08
4.21977e-16
1.55745e-14
-3.72743e-29
1.95868e-13
2.51557e-11
-2.50072e-12
6.13184e-12
2.63625e-12
2.87657e-13
1.02646e-12
-1.87266e-13
-2.54724e-14
2.01383e-14
-3.8356e-15
-2.86254e-15
-1.28544e-15
-2.69108e-16
1.27059e-17
-2.61988e-29
-3.86997e-28
2.13573e-26
1.48699e-24
3.74852e-23
-1.7542e-22
-3.7344e-20
-1.13361e-18
-8.44621e-18
6.39909e-12
4.87362e-12
2.56206e-13
5.98922e-13
4.96848e-13
-6.56028e-14
1.73966e-14
-1.14721e-14
4.40271e-15
1.89422e-15
7.76798e-16
2.79127e-17
-4.44875e-18
4.44218e-19
1.8988e-20
1.24895e-24
-1.26148e-28
5.95998e-28
2.14364e-25
8.55311e-24
9.97167e-23
-4.60335e-21
-2.48371e-19
-3.95888e-18
2.7268e-17
2.98841e-15
6.77892e-14
1.32634e-13
-1.84882e-11
-3.18441e-10
-8.69075e-10
2.65341e-08
2.93241e-07
2.34443e-21
-8.55641e-11
-8.1008e-10
3.80614e-09
6.37429e-07
2.14287e-27
-4.63541e-19
1.24662e-24
-1.00232e-19
2.66079e-22
7.44126e-05
9.93676e-22
0.994153
1.00617
1.00364
1.00319
1.00651
1.00016
1.00132
0.999552
0.999266
0.999791
0.99941
0.999964
0.999827
1
0.999971
0.999995
0.999973
0.999985
0.999951
0.999984
0.999943
0.999983
0.99994
0.999981
0.999935
0.999982
0.999936
0.999982
0.999937
0.99998
0.999935
0.99998
0.999935
0.99998
0.999932
0.999976
0.999933
0.99998
0.999934
0.99998
0.999937
0.999983
0.99994
0.999983
0.999939
0.999981
0.999936
0.999982
0.999937
0.999982
0.999938
0.999983
0.99994
0.999985
0.999943
0.999984
0.999941
0.999982
0.999936
0.999982
0.999936
0.999982
0.999937
0.99998
0.999936
0.999983
0.999938
0.999984
0.999941
0.999984
0.999941
0.999983
0.999939
0.999982
0.999936
0.999981
0.999939
0.999981
0.999933
0.999976
0.999929
0.999975
0.999927
0.999979
0.999931
0.999938
0.999919
0.999916
0.999906
0.999898
9.46906e-24
-5.17669e-13
-1.01883e-18
3.68411e-11
-5.7413e-27
4.84287e-21
1.74621e-15
-1.91914e-08
-1.1213e-06
-4.99791e-07
7.14759e-08
7.89812e-09
2.07515e-11
1.0428e-11
-4.57841e-11
1.48665e-11
-3.31452e-12
-2.21675e-12
4.81012e-29
1.5614e-14
6.55786e-15
1.78706e-14
5.55387e-15
1.0976e-11
5.68082e-17
5.32608e-20
-8.88585e-20
-3.93228e-21
-4.84297e-23
2.24039e-24
1.18877e-25
2.3576e-27
-4.81299e-06
-3.92596e-06
-9.5028e-11
-1.14336e-10
-1.5753e-27
-7.3608e-27
-3.93718e-21
-5.04389e-21
5.49987e-21
-5.21936e-25
-1.09405e-19
-1.67984e-22
-2.49626e-22
1.42766e-21
-6.78468e-26
-8.02335e-25
0.000163363
0.000182506
2.67235e-20
-1.6065e-19
2.13923e-24
1.83019e-23
5.63955e-19
7.06581e-19
-8.10238e-19
2.62297e-17
-3.48126e-16
-2.02538e-15
-4.76627e-15
-9.36625e-15
3.97883e-14
-6.00988e-14
-2.14156e-13
1.71223e-12
4.41717e-13
5.40876e-12
9.01803e-12
1.41898e-11
1.22277e-07
1.70585e-07
1.0001
1.00002
1.00051
1.00054
0.999155
0.999543
0.999032
0.99868
0.999561
0.998179
1.00794
1.00473
1.01504
1.0169
0.993648
1.01048
0.928411
0.962344
0.82279
0.871349
0.689642
0.745745
0.546572
0.602143
0.407776
0.459078
0.28917
0.33084
0.196898
0.228933
0.128317
0.151578
0.0798115
0.0953629
0.0479072
0.0577388
0.02782
0.0340447
0.0154311
0.0190779
0.00842153
0.0104787
0.00448608
0.00565565
0.00232445
0.00293016
0.00118025
0.00150935
0.00059181
0.000757193
0.000289541
0.000373882
0.000136947
0.000178731
6.39778e-05
8.29e-05
2.95313e-05
3.86062e-05
1.33597e-05
1.76024e-05
5.95504e-06
7.85253e-06
2.6006e-06
3.44946e-06
1.11343e-06
1.49274e-06
4.65009e-07
6.22442e-07
1.96129e-07
2.62732e-07
8.24858e-08
1.11344e-07
3.34481e-08
4.52914e-08
1.34728e-08
1.83605e-08
5.29601e-09
7.25154e-09
2.09983e-09
2.86275e-09
8.15983e-10
1.122e-09
3.28709e-10
4.44839e-10
1.4399e-10
1.91099e-10
-1.41498e-11
-4.21118e-11
-1.11496e-11
1.13866e-11
1.91697e-11
-7.00688e-26
8.19025e-30
-2.37367e-13
-2.68262e-14
-0.00209491
2.03769e-29
0.925589
1.84304e-07
4.55695e-11
1.46998e-29
1.29652e-15
3.61523e-16
1.55706e-11
-1.51304e-10
7.31183e-08
2.79018e-08
2.46052e-08
1.39811e-09
1.70457e-14
2.36745e-16
6.42107e-18
-2.67706e-19
-2.15401e-20
-5.59066e-22
2.74107e-24
5.84348e-25
1.89462e-26
1.23947e-27
0.00947927
1.64637e-11
-1.00029e-05
-1.30289e-05
-1.02041e-17
-6.31566e-18
0.959583
2.45721e-24
1.7904e-22
1.55754e-15
1.21137e-15
8.54283e-18
-2.60777e-15
1.8412e-17
3.37303e-15
7.6938e-15
-1.53864e-14
1.87865e-14
-1.25662e-13
1.06857e-12
8.05443e-13
8.82548e-13
1.21145e-11
0.0767427
0.0425198
7.59507e-11
4.36638e-25
1.26342e-06
2.69065e-05
-1.84899e-05
7.03761e-12
6.08891e-13
2.30469e-12
-3.22629e-13
-7.45446e-14
5.06249e-14
-1.10142e-27
1.09394e-26
1.09773e-12
1.16693e-12
1.34077e-12
-0.00338276
0.000557856
-0.00376814
-1.66637e-13
0.684454
2.96956e-14
-2.2291e-14
9.90534e-15
7.98511e-26
2.02469e-24
-1.04887e-23
-2.40655e-21
-7.20447e-20
-4.88616e-19
5.54192e-09
1.93509e-28
-0.000222348
-0.000996161
0.00019646
3.16696e-24
0.786941
9.39373e-29
3.10719e-17
5.47585e-24
-2.87673e-22
1.15715e-27
-1.52051e-20
6.03555e-10
-2.72147e-19
2.38211e-18
1.67651e-27
3.56116e-17
4.27767e-15
4.26914e-20
3.11565e-24
-7.32615e-22
-4.60743e-16
-1.1139e-14
-6.21374e-15
0.322935
-1.33908e-12
1.00904
1.00846
1.01701
1.00216
1.00737
0.999737
1.00077
0.999597
0.999359
0.999828
0.99964
0.99994
0.999914
0.999955
0.99999
0.999936
0.999976
0.99993
0.999959
0.999928
0.999953
0.99992
0.999944
0.999924
0.999943
0.999927
0.999945
0.999922
0.999942
0.999921
0.999946
0.999933
0.999947
0.999924
0.999949
0.999928
0.999942
0.999924
0.999941
0.999922
0.999943
0.999926
0.999944
0.999923
0.999943
0.999927
0.999943
0.999926
0.999939
0.99992
0.999934
0.999923
0.999939
0.999924
0.999944
0.999918
0.99994
0.999923
0.999941
0.999928
0.999943
0.999924
0.999941
0.999923
0.999936
0.999921
0.999937
0.999922
0.999938
0.999922
0.999938
0.999914
0.999932
0.99991
0.999943
0.999921
0.99995
0.999918
0.999958
0.999924
0.999961
0.999949
0.999972
0.999984
1.00008
1.00004
-4.31011e-06
1.97635e-28
7.10826e-15
-8.98494e-26
-5.42949e-16
6.01504e-24
2.78555e-08
5.26343e-19
3.42969e-11
2.82172e-26
-4.45065e-12
-3.81026e-12
6.39404e-17
4.84828e-16
-2.86509e-13
-3.43199e-23
2.49035e-11
1.98375e-27
2.68873e-17
4.53064e-18
2.60953e-18
4.63384e-09
-5.20133e-21
-2.32669e-22
-1.48826e-22
-3.55493e-24
-1.41708e-24
3.17038e-12
-1.41196e-17
8.61867e-17
1.81259e-10
2.87527e-11
-3.2914e-26
-7.8931e-23
0.000158892
-1.89542e-19
9.27053e-24
1.09648e-15
1.19295e-15
0.873018
-2.40792e-14
-4.34928e-15
9.01314e-15
0.211801
7.2833e-26
8.15042e-26
1.67152e-14
-2.94668e-14
-3.38229e-27
-2.03284e-27
-4.73624e-26
9.58854e-14
-1.62673e-13
-3.88676e-13
2.74888e-12
1.51606e-12
1.08579e-12
4.04992e-12
2.19322e-11
-2.39753e-07
-8.86352e-25
7.79489e-24
1.00044
1.00035
0.999271
0.999786
0.998871
0.998879
0.998641
0.997745
1.00651
1.00282
1.01589
1.0161
1.00067
1.01496
0.944204
0.976096
0.846902
0.895474
0.717064
0.773689
0.573329
0.631653
0.430813
0.486032
0.309324
0.353839
0.214111
0.249295
0.139993
0.166021
0.087465
0.104831
0.0527568
0.0640274
0.0305409
0.0375666
0.0171658
0.0212877
0.00948102
0.011869
0.0050311
0.00637409
0.00263968
0.00334156
0.00135495
0.00173756
0.000677403
0.000869044
0.000337654
0.000435771
0.000158464
0.000209538
7.18288e-05
9.46762e-05
3.41363e-05
4.48285e-05
1.54219e-05
2.0517e-05
6.85136e-06
9.10337e-06
3.0427e-06
4.07369e-06
1.28233e-06
1.73723e-06
5.42274e-07
7.30569e-07
2.31382e-07
3.11924e-07
9.62565e-08
1.30717e-07
4.00553e-08
5.43865e-08
1.62644e-08
2.2293e-08
6.39206e-09
8.818e-09
2.55805e-09
3.50915e-09
9.99415e-10
1.38521e-09
3.91382e-10
5.36977e-10
1.59242e-10
2.13285e-10
-3.78444e-17
-4.40225e-17
-7.24095e-16
2.42215e-11
3.38921e-11
3.36686e-11
2.11793e-14
-2.10309e-13
-8.52416e-06
-1.02043e-05
-1.47669e-20
-1.54101e-20
1.42719e-11
3.00223e-11
-1.51455e-25
-1.79068e-25
-1.39119e-24
1.10935e-09
3.7122e-09
7.57232e-10
5.81387e-09
-1.04786e-07
3.92871e-08
1.25335e-16
3.98566e-16
9.13823e-17
3.32561e-27
1.09408e-25
0.000376912
0.000191715
-1.31387e-06
6.40882e-11
-4.1153e-21
-1.22737e-21
9.76434e-11
1.80266e-17
3.88087e-14
-2.94646e-13
3.54751e-11
-1.87287e-23
-1.00971e-12
5.69356e-27
1.40194e-08
1.8856e-11
1.43647e-20
3.21761e-08
-8.65258e-22
-9.48315e-07
-1.91453e-13
-4.23087e-14
1.29222e-08
-2.1808e-20
1.05755e-10
-3.84096e-06
2.15147e-19
9.58816e-11
6.81803e-12
-1.32726e-06
-1.23321e-05
1.07499e-20
-3.8833e-22
0.974971
6.53393e-20
0.65839
-2.7116e-19
4.87824e-24
7.72918e-24
2.37514e-15
-1.93131e-18
-2.20512e-17
3.03001e-15
0.739477
-5.56593e-15
1.47868e-12
1.00089
-1.06205e-14
-2.7029e-14
0.0210967
-2.63642e-13
3.76951e-12
-9.54726e-12
-9.74368e-12
-1.02639e-11
-7.31699e-21
1.23229e-20
2.16375e-14
2.17015e-26
1.76672e-21
-9.35702e-21
-4.00779e-14
-0.00114916
-0.000197205
-2.28338e-15
8.46019e-16
-0.00507618
-0.00383488
1.09545e-18
8.40988e-19
-1.36925e-14
0.917627
9.97522e-20
2.19758e-23
2.23294e-12
3.51946e-12
1.23403e-13
-4.2915e-13
5.10131e-12
-2.69232e-25
-5.26338e-06
-2.42982e-14
1.00934
1.0044
1.01018
1.00066
1.00315
0.999813
1.00015
0.999956
0.999869
1.00014
1.00018
1.00023
1.00039
1.00023
1.00046
1.00023
1.00046
1.00023
1.00046
1.00022
1.00045
1.00022
1.00045
1.00022
1.00044
1.00023
1.00045
1.00022
1.00045
1.00023
1.00045
1.00021
1.00044
1.00023
1.00044
1.00023
1.00046
1.00022
1.00045
1.00023
1.00046
1.00022
1.00044
1.00022
1.00045
1.00023
1.00046
1.00022
1.00046
1.00022
1.00044
1.00022
1.00045
1.00022
1.00044
1.00022
1.00044
1.00023
1.00044
1.00022
1.00045
1.00023
1.00045
1.00023
1.00046
1.00022
1.00045
1.00023
1.00046
1.00025
1.00047
1.00025
1.00047
1.00026
1.00049
1.00021
1.0005
1.00021
1.00045
0.705211
1.04043e-10
1.62753e-21
1.43434e-16
-2.45343e-22
7.62678e-18
2.74348e-19
5.53761e-11
1.15152e-10
-4.18616e-14
1.63228e-19
5.25112e-09
-1.10831e-12
-1.8691e-24
3.74508e-11
-1.14502e-14
-2.50432e-08
-6.31351e-09
0.32326
-1.18566e-23
-7.53389e-24
4.63132e-15
8.14888e-12
2.88674e-17
2.35971e-17
-6.27227e-23
-4.44841e-23
4.28281e-15
-7.94795e-13
-1.93737e-12
-5.88563e-22
-6.49118e-22
-2.92424e-22
1.11268e-23
1.79441e-23
2.99548e-12
-0.00931169
0.00115764
-1.98021e-26
-2.2984e-25
-1.09922e-24
-1.10797e-25
-6.08044e-14
-6.65042e-14
-6.22776e-13
-1.86792e-13
0.067648
3.71821e-14
-7.44187e-14
-4.21764e-22
-0.00543773
0.00058068
2.34184e-21
0.0712056
0.0315849
0.109761
7.13614e-12
1.11663e-11
0.882959
0.720384
-4.38291e-13
-8.638e-13
1.60607e-18
1.0643e-18
0.999573
0.999042
0.999275
0.99823
0.997572
1.00469
1.00017
1.01581
1.0137
1.00702
1.01828
0.960842
0.989913
0.873404
0.919522
0.74935
0.806605
0.604682
0.666346
0.461319
0.519891
0.336399
0.384644
0.235407
0.273505
0.156295
0.185361
0.0977136
0.117922
0.0589303
0.0719872
0.0346979
0.0426829
0.0196717
0.0245016
0.0108578
0.013649
0.00588071
0.00746878
0.00306902
0.00392976
0.0015811
0.00203882
0.000798942
0.00103307
0.0003957
0.000516292
0.000189517
0.000250622
8.73279e-05
0.000116024
4.07793e-05
5.39574e-05
1.85681e-05
2.47805e-05
8.28617e-06
1.10714e-05
3.65902e-06
4.91564e-06
1.56913e-06
2.13348e-06
6.61141e-07
9.02327e-07
2.78994e-07
3.80707e-07
1.18825e-07
1.6186e-07
4.99095e-08
6.84325e-08
2.01307e-08
2.78261e-08
8.21239e-09
1.137e-08
3.2571e-09
4.55124e-09
1.27678e-09
1.8033e-09
5.14806e-10
7.36155e-10
1.9422e-10
5.62542e-05
0.000177529
2.59004e-05
-8.77133e-07
-7.79164e-06
1.49074e-23
1.865e-23
3.35963e-20
1.5221e-20
1.03133e-11
4.84038e-11
1.50638e-14
-3.13599e-14
-2.76483e-15
-5.65639e-13
-2.02907e-14
5.47004e-18
1.77167e-09
-3.43345e-25
1.27428e-11
5.83553e-11
-1.94215e-22
-0.0109887
-0.00770576
2.65762e-21
2.9491e-10
5.68425e-11
5.2114e-11
2.93382e-13
2.27256e-13
0.189273
-3.93352e-22
-1.04974e-12
-3.97692e-13
1.23877e-14
-2.01922e-07
-1.27437e-07
-2.93611e-17
1.96134e-16
4.09029e-12
2.74323e-12
-1.16214e-14
-9.35031e-15
2.3465e-20
3.85539e-05
1.65047e-05
9.16204e-12
5.79242e-21
6.84784e-21
2.37231e-19
-2.75034e-06
-2.37801e-16
-1.98822e-16
1.6265e-19
-3.79112e-19
-1.52529e-18
1.22024e-11
3.961e-12
1.00742
0.992288
-1.18763e-26
-4.77364e-22
4.72434e-14
-1.2386e-25
-1.73027e-25
-4.35266e-25
0.239582
3.84721e-12
-5.85236e-06
-6.8747e-22
4.56649e-09
8.1508e-09
4.33426e-09
1.00019
1.00025
-7.6283e-16
-1.09778e-15
5.94929e-15
-5.57588e-19
-8.88741e-07
-2.43681e-06
-6.50957e-07
-0.000310209
-1.38227e-20
-1.7899e-20
2.45839e-20
6.99902e-17
7.38934e-17
5.33162e-11
-0.00296602
-0.00756593
-0.00183563
-2.04282e-14
-1.25361e-14
3.74467e-21
-1.19614e-24
-2.21573e-24
1.93026e-23
1.42472e-09
4.97752e-10
1.90953e-14
7.13953e-11
1.61577e-18
1.26346e-18
0.926468
7.95993e-11
3.71967e-21
1.77403e-11
1.00674
1.00188
1.00523
1.00009
1.0007
0.999897
0.999574
1.00011
0.999688
1.00029
0.999966
1.00033
1.00014
1.00036
1.00019
1.00038
1.00023
1.00038
1.00024
1.00037
1.00026
1.00038
1.00025
1.00038
1.00025
1.00038
1.00024
1.00037
1.00024
1.00036
1.00023
1.00037
1.0002
1.00036
1.00023
1.00036
1.00021
1.00038
1.00021
1.00035
1.00018
1.00035
1.00019
1.00037
1.00019
1.00037
1.00023
1.00037
1.00023
1.00038
1.00024
1.00038
1.00024
1.00038
1.00025
1.00037
1.00023
1.00035
1.00022
1.00037
1.0002
1.00037
1.00022
1.00036
1.00023
1.00039
1.00021
1.00039
1.00023
1.00038
1.00018
1.00039
1.00014
1.00041
1.00022
1.00018
0.4619
1.0002
2.56715e-05
5.11403e-13
3.00667e-11
7.91013e-11
4.96271e-23
4.92942e-12
3.98562e-19
-1.02907e-16
-3.50231e-23
-4.46399e-14
6.66446e-13
0.441658
1.23739e-20
-8.03393e-22
-1.09242e-21
4.87514e-21
7.78177e-12
8.69338e-12
3.82276e-11
-4.78276e-18
-1.15202e-07
-9.13787e-19
1.21562e-10
-1.03213e-13
-3.0914e-13
-7.34193e-14
-1.27227e-23
0.000190862
0.000248373
0.480195
-3.07787e-23
-3.25243e-23
0.980238
1.40164e-21
5.8561e-22
3.08757e-14
0.145613
-3.74344e-18
-2.9507e-18
-4.52729e-17
-1.21636e-15
7.83958e-17
0.38021
1.34591e-10
-7.06111e-15
-1.81038e-14
3.92238e-14
0.999458
1.00942
1.01164
1.00166
7.48799e-14
-1.46191e-13
-8.16263e-14
1.65171e-12
2.30413e-11
0.811529
0.898704
0.51666
1.7371e-11
7.59718e-12
9.99438e-11
3.48038e-10
5.81453e-11
-1.1504e-12
1.84477e-12
1.59673e-18
1.27125e-18
0.997951
1.00152
0.997557
1.01314
1.00962
1.01143
1.01868
0.977249
1.00057
0.901275
0.944159
0.782897
0.841128
0.643148
0.704396
0.500187
0.56058
0.368691
0.421976
0.261363
0.302566
0.17645
0.208876
0.110992
0.133802
0.0680458
0.0826663
0.040342
0.0498119
0.0228289
0.028516
0.0128638
0.0161376
0.00704648
0.00895247
0.00369391
0.00472803
0.00193939
0.00249719
0.000972202
0.00126737
0.000482504
0.000626706
0.000237967
0.000313268
0.000108962
0.000146256
5.04234e-05
6.67921e-05
2.32597e-05
3.12253e-05
1.0232e-05
1.38648e-05
4.52462e-06
6.11262e-06
1.99246e-06
2.72106e-06
8.38277e-07
1.14869e-06
3.61528e-07
4.93606e-07
1.54437e-07
2.11535e-07
6.39788e-08
8.75933e-08
2.66893e-08
3.71465e-08
1.07588e-08
1.50263e-08
4.45823e-09
6.20258e-09
1.85294e-09
2.62278e-09
7.83837e-10
1.1323e-09
1.82762e-10
2.2352e-10
3.2233e-10
2.47502e-23
-2.44987e-23
7.77103e-20
4.96757e-20
9.17149e-11
1.63963e-10
-5.33549e-14
9.41318e-14
-1.10145e-12
-1.64336e-12
1.37919e-09
-3.01301e-23
1.22129e-05
4.60582e-07
-4.70404e-15
-1.17624e-15
1.12691e-11
-1.539e-13
-1.66683e-13
4.14905e-12
6.28101e-13
1.20785e-10
-3.10682e-14
-2.37308e-14
2.80533e-19
-1.42385e-16
-6.5502e-17
7.13346e-21
0.227179
-9.96373e-24
-2.95487e-24
-6.74951e-14
0.000111531
8.70035e-05
-4.50916e-07
-3.38602e-07
3.08324e-16
-0.00124545
1.30664e-10
3.41415e-19
-1.22441e-18
1.78776e-10
1.87381e-10
3.87728e-18
-1.85096e-13
2.40801e-11
4.70503e-11
3.06645e-11
-8.51508e-25
-6.43246e-25
-2.07259e-24
1.39599e-10
2.0773e-09
0.997961
3.00015e-20
4.96419e-19
0.0898999
0.0176454
8.24845e-15
-2.22416e-14
4.8113e-10
0.000152859
0.000320044
0.000122349
4.17117e-20
4.53704e-20
-2.44954e-20
-3.08125e-20
4.31171e-20
-0.00485228
-0.00377366
1.99604e-18
1.47019e-18
-7.31728e-08
-1.87878e-08
3.47797e-23
4.56709e-23
4.36278e-23
-2.99262e-06
-2.49557e-06
-1.43919e-12
4.36543e-18
-7.22662e-16
-5.75116e-16
3.9468e-18
7.43617e-22
-6.19754e-17
1.00257
0.999673
1.00091
0.998735
0.998321
0.998728
0.997718
0.998922
0.997859
0.998982
0.998003
0.999047
0.998087
0.999078
0.998152
0.999071
0.99809
0.999062
0.99814
0.999121
0.998189
0.999088
0.998214
0.999083
0.998173
0.999062
0.99816
0.999064
0.998162
0.999093
0.998182
0.999028
0.998159
0.999067
0.998124
0.999101
0.998278
0.999083
0.998206
0.999066
0.998211
0.999081
0.998167
0.999064
0.998161
0.999085
0.998172
0.999085
0.998184
0.999054
0.998091
0.999015
0.998117
0.999089
0.998155
0.999082
0.998214
0.999101
0.998237
0.9991
0.998231
0.999042
0.998207
0.99902
0.998187
0.998877
0.99809
0.998746
0.997866
-1.77403e-22
7.82212e-12
2.03863e-20
2.22165e-19
6.54056e-05
3.60323e-10
6.4733e-14
8.5903e-11
-7.35619e-13
-0.000416295
0.000129383
2.95007e-10
5.77995e-10
3.08579e-10
4.19334e-10
4.77138e-10
4.17273e-21
2.72687e-21
9.68835e-12
-3.63873e-13
3.65461e-11
1.47219e-11
4.44664e-11
5.0444e-11
-4.09072e-25
0.999088
-2.10479e-19
2.50977e-19
1.00965
1.0056
1.01393
1.01694
0.991003
1.01039
0.928516
0.965736
0.822719
0.876092
0.684943
0.74763
0.542023
0.603828
0.408549
0.465007
0.29143
0.337115
0.200184
0.234518
0.127332
0.15358
0.0780638
0.0951251
0.0472289
0.057964
0.0270721
0.0339369
0.0153198
0.0191787
0.00856511
0.0107801
0.00450741
0.00580555
0.00235956
0.00303086
0.00121499
0.00158171
0.000590444
0.000775082
0.000295859
0.000385393
0.000138922
0.000186381
6.26867e-05
8.41698e-05
2.92423e-05
3.8926e-05
1.32255e-05
1.79051e-05
5.76291e-06
7.80485e-06
2.6089e-06
3.51173e-06
1.10269e-06
1.52219e-06
4.68658e-07
6.42244e-07
2.01834e-07
2.77163e-07
8.23328e-08
1.14085e-07
3.49778e-08
4.77386e-08
1.45866e-08
2.01448e-08
6.10072e-09
8.40051e-09
2.77998e-09
3.80753e-09
1.32565e-09
8.81983e-10
1.94367e-09
-8.68486e-16
1.0538e-14
-1.30788e-06
-2.77359e-06
-1.13524e-06
8.27881e-20
6.33681e-20
2.78927e-10
3.98884e-10
1.52193e-13
-4.55909e-13
-0.00738266
-0.00930491
-1.71403e-12
8.65192e-12
2.64127e-11
1.07914e-10
1.45355e-09
6.72733e-10
1.14901e-12
-8.04976e-13
-6.10958e-25
-2.05212e-24
-8.74747e-25
0.800093
-6.79295e-16
1.00635
-2.13885e-21
-1.51812e-21
0.998847
1.0064
1.00768
-2.17786e-15
-1.69044e-13
3.33402e-11
-1.31107e-15
0.996847
-1.24927e-14
1.43047e-20
-1.48526e-09
-3.86224e-16
-2.50341e-16
5.70003e-11
0.997655
1.01037
-1.40063e-14
-6.44929e-15
-0.00310127
-1.49639e-15
4.18056e-16
0.000167008
0.000157726
-5.86639e-07
1.65313e-18
1.30059e-19
-5.63396e-14
1.359e-14
1.01183e-22
-0.00159155
-2.11055e-18
2.56909e-18
-1.43716e-13
-1.15928e-13
-7.32162e-18
4.44103e-22
-8.81531e-25
2.25145e-10
4.1387e-24
6.76886e-11
-7.14589e-09
0.966886
0.989485
0.88041
-1.22238e-08
-7.19061e-09
-3.55627e-17
0.406807
0.525704
0.186232
2.06978e-10
1.52094e-10
-5.56297e-17
-3.42587e-18
6.93763e-19
9.98434e-19
-2.76008e-18
-3.47148e-14
8.10372e-14
2.13454e-19
4.97012e-05
1.5566e-05
-4.25355e-20
0.000248795
0.000260601
1.94368e-13
-9.94502e-14
-8.64144e-14
2.90888e-10
-6.29684e-18
-7.27432e-18
-0.00708096
-0.00705485
-2.57807e-12
5.61464e-23
-1.81077e-22
5.1906e-11
1.75142e-11
8.42711e-23
1.13175e-22
1.00722e-22
1.4909e-12
6.39807e-16
-1.89273e-15
-5.27187e-07
-2.21104e-07
-3.3644e-12
4.66143e-23
3.73085e-10
-2.69351e-12
1.01229e-10
-1.86136e-15
-5.33905e-15
-1.35098e-15
1.0041
-8.74574e-16
-4.52633e-16
0.999997
1.00318
0.998031
0.999236
0.997602
0.997762
0.997644
0.997526
0.997599
0.99755
0.99763
0.997476
0.997703
0.99762
0.997737
0.997666
0.997644
0.997585
0.997759
0.997536
0.997693
0.997657
0.997709
0.997566
0.997688
0.997557
0.997752
0.997631
0.997795
0.997678
0.997675
0.997651
0.99771
0.997533
0.997735
0.997685
0.997723
0.997569
0.997724
0.997674
0.997725
0.99763
0.997671
0.99763
0.997676
0.997549
0.99772
0.997659
0.997744
0.99768
0.997599
0.99757
0.997743
0.997567
0.99774
0.99768
0.997627
0.997589
0.997634
0.9976
0.997537
0.997617
0.997513
0.99764
0.997262
0.998002
0.997777
-3.27466e-18
-9.97896e-13
1.0008
1.08993e-20
2.02653e-11
0.00038928
-5.24507e-20
-1.43357e-17
-1.49616e-17
4.12503e-21
3.15543e-22
-2.00344e-17
-1.32375e-17
1.38592e-14
-4.3491e-14
-2.3223e-13
4.86402e-24
2.55409e-13
-5.45211e-12
-2.12192e-12
6.20164e-10
5.32031e-21
1.25035e-21
8.90393e-22
2.05601e-24
-6.08955e-08
-1.75357e-07
-4.29699e-08
-5.65114e-21
1.48847e-20
-8.54932e-17
7.27913e-11
3.03589e-11
5.254e-10
8.37486e-10
1.00651
1.00254
7.87389e-20
8.12561e-20
1.01398
1.0142
1.0012
1.01411
0.951624
0.98218
0.855922
0.902909
0.727589
0.784995
0.58617
0.64668
0.449851
0.504839
0.326978
0.374633
0.223582
0.260214
0.145435
0.172845
0.0911598
0.109805
0.0552151
0.0670625
0.0325461
0.040169
0.01844
0.0230278
0.0102219
0.0128257
0.00553553
0.00703341
0.00292894
0.00373386
0.00150648
0.00193374
0.000747421
0.000975393
0.000366333
0.00047716
0.00017462
0.000229996
8.19576e-05
0.000108985
3.7022e-05
4.94719e-05
1.69003e-05
2.24968e-05
7.57943e-06
1.02335e-05
3.30798e-06
4.45428e-06
1.44889e-06
1.96343e-06
6.30204e-07
8.58567e-07
2.65865e-07
3.61341e-07
1.11392e-07
1.53385e-07
4.62707e-08
6.38178e-08
1.92793e-08
2.65012e-08
8.25986e-09
1.12357e-08
3.79019e-09
4.92646e-09
-9.79229e-17
-6.86596e-17
-8.26169e-13
1.97179e-13
-0.00512864
-0.00954534
2.57569e-11
1.3323e-10
2.31765e-10
6.93267e-10
5.80072e-10
-2.43094e-12
-7.38249e-12
1.00861
1.00908
-6.38125e-20
1.78087e-14
1.67812e-15
-2.40059e-08
-3.40033e-21
3.60694e-11
3.22843e-11
-3.43145e-15
1.59585e-15
1.00901
2.40014e-09
-2.18694e-13
-3.80186e-16
-2.96901e-16
-0.00223523
-9.80211e-17
-1.5837e-16
8.61889e-16
1.84881e-15
-1.14772e-06
-4.76713e-10
3.51232e-14
-3.52089e-19
-0.000506769
1.25509e-13
-2.90007e-13
-3.28724e-17
2.08541e-22
-2.26693e-07
-1.83389e-18
4.40721e-21
0.976667
0.947605
7.89857e-11
0.415412
7.80848e-10
1.17105e-09
1.91723e-19
3.08247e-12
2.31197e-12
8.87196e-10
6.46939e-10
1.67937e-21
2.19329e-21
-7.67704e-20
0.0314812
3.0377e-10
-2.94117e-12
1.17538e-18
-3.49061e-17
1.19722e-18
2.99823e-13
1.04916e-20
1.76179e-10
0.00933681
0.775061
0.855872
0.520424
-1.47603e-19
0.120604
1.90335e-10
4.36604e-19
1.67674e-18
6.8643e-10
9.42044e-10
1.06633e-09
0.000185823
0.000276081
8.43188e-06
1.04538e-06
2.01895e-13
0.000101676
-6.27627e-22
-4.52337e-21
-9.52228e-07
-0.00520265
1.01692e-10
-0.00828946
-0.00919568
-1.73367e-08
-5.78684e-09
1.02855e-10
1.23961e-11
3.56345e-12
0.000157511
0.000192866
1.7563e-10
1.18399e-06
2.46363e-07
3.44255e-21
-1.04068e-12
3.80972e-13
-5.656e-11
2.17567e-11
1.23321e-13
2.7758e-14
2.88949e-14
2.2618e-14
1.00939
-7.09052e-07
8.09567e-11
1.0046
1.01073
1.00168
1.00575
1.00071
1.00331
1.00053
1.00262
1.00034
1.00246
1.0004
1.00225
1.00046
1.00236
1.00032
1.00233
1.00019
1.00225
1.0004
1.00223
1.00034
1.00245
1.0003
1.00223
1.0003
1.00221
1.0003
1.00216
1.00032