/*--------------------------------*- C++ -*----------------------------------*\
  =========                 |
  \\      /  F ield         | OpenFOAM: The Open Source CFD Toolbox
   \\    /   O peration     | Website:  https://openfoam.org
    \\  /    A nd           | Version:  7
     \\/     M anipulation  |
\*---------------------------------------------------------------------------*/
FoamFile
{
    version     2.0;
    format      ascii;
    class       volScalarField;
    location    "1";
    object      T;
}
// * * * * * * * * * * * * * * * * * * * * * * * * * * * * * * * * * * * * * //

dimensions      [0 0 0 1 0 0 0];

internalField   nonuniform List<scalar> 
46572
(
-3.29716e-41
-7.08443e-40
7.97648e-39
6.72864e-39
-4.05111e-38
-1.54712e-37
-1.02014e-36
1.47571e-37
-3.90722e-36
8.77673e-36
-4.93516e-36
2.6658e-35
5.70624e-36
1.85247e-35
2.49098e-35
-5.70444e-35
5.18413e-35
-1.61008e-34
7.11263e-35
-2.32943e-34
3.89243e-35
-3.05749e-34
-2.41564e-34
-5.09586e-34
-1.20047e-33
-6.63404e-34
-2.40981e-33
1.28199e-33
2.28039e-33
1.05956e-32
3.33731e-32
3.50147e-32
1.3623e-31
1.03236e-31
5.41389e-31
2.5803e-31
1.60931e-30
1.46527e-31
3.06894e-30
-2.63802e-31
4.25946e-30
-9.19985e-31
4.86796e-30
-1.23621e-30
4.77293e-30
-1.05362e-30
4.59972e-30
-8.24594e-31
4.52649e-30
-7.57325e-31
4.65245e-30
-8.09837e-31
5.05965e-30
-7.67893e-31
5.61351e-30
-9.93478e-31
5.94385e-30
-1.24359e-30
5.56199e-30
-1.14427e-30
4.95562e-30
-8.37646e-31
4.47228e-30
-4.7545e-31
4.27291e-30
-6.46297e-31
4.16415e-30
-9.53381e-31
3.87107e-30
-9.33507e-31
3.35073e-30
-8.0488e-31
2.67417e-30
-7.93356e-31
1.7832e-30
-3.26871e-31
1.01723e-30
-3.67827e-32
4.70415e-31
8.72698e-32
1.36348e-31
1.36022e-31
2.09977e-32
7.02145e-32
-3.90244e-33
1.642e-32
-1.41832e-33
-5.56065e-33
2.06494e-35
-3.95725e-33
6.18238e-35
-9.15553e-34
2.1295e-35
-9.20254e-35
3.21148e-36
1.35837e-35
-3.90815e-37
5.48399e-36
-5.48843e-38
-3.37059e-37
4.27438e-39
-6.02563e-38
-8.51357e-45
4.50453e-39
-6.73796e-46
1.02002e-42
0
-2.14848e-45
0
0
0
0
0
0
0
0
0
0
0
0
0
0
0
0
0
0
0
0
0
0
0
0
0
0
0
0
0
0
0
0
0
0
0
0
0
0
0
0
0
0
0
0
0
0
0
0
0
0
0
0
0
0
0
0
0
0
0
0
0
0
0
0
0
0
0
0
0
0
0
0
0
0
0
0
0
0
0
0
0
0
0
0
0
0
0
0
0
0
0
0
0
0
0
0
0
0
0
0
0
0
0
0
0
0
0
0
0
0
0
0
0
0
0
0
0
0
0
0
0
0
0
0
0
0
0
0
0
-1.35186e-138
0
-1.90242e-132
-2.78214e-134
-4.55357e-123
-5.69196e-123
-1.72116e-122
-2.15145e-122
8.73107e-122
1.67212e-121
-4.58448e-116
7.23733e-118
8.80799e-113
1.1459e-112
5.7217e-112
6.9293e-112
1.03484e-108
2.95473e-110
1.28177e-106
1.04302e-106
1.52393e-105
1.69512e-105
5.63012e-104
-2.55058e-103
7.14701e-104
-1.32063e-103
7.14335e-104
-5.85636e-104
-6.29851e-103
-4.15321e-103
-8.84501e-100
-1.07599e-99
-2.94819e-99
-3.65222e-99
-2.14426e-99
-2.83249e-99
1.91358e-98
-6.26471e-98
3.95977e-95
4.8857e-95
7.06453e-95
8.20326e-95
8.35638e-94
3.26322e-94
-3.32626e-95
2.00155e-93
-4.71332e-93
2.67762e-92
1.46153e-91
-2.34023e-91
1.82383e-89
1.8761e-89
1.85303e-89
2.11505e-89
1.41592e-89
5.96309e-90
2.76046e-89
-2.16616e-89
1.27368e-87
1.2638e-87
8.17592e-88
7.24554e-88
1.49787e-87
-2.88766e-87
5.58733e-87
8.28926e-88
6.98843e-87
4.19889e-87
6.18202e-87
2.77e-87
6.15804e-87
-1.53978e-87
2.18135e-86
1.91772e-86
3.29141e-86
2.1173e-86
2.41116e-86
1.4072e-86
2.28876e-86
6.01865e-87
2.247e-85
8.36636e-86
1.88732e-85
-4.76067e-86
1.82599e-85
-1.04374e-85
1.82218e-85
-1.46229e-85
1.6584e-85
-1.18784e-85
4.55396e-85
-6.19359e-85
5.44649e-85
-6.86711e-85
3.90159e-84
-1.18429e-84
7.85677e-84
4.99278e-84
5.50669e-84
2.85937e-84
5.88668e-84
-4.09277e-84
1.03422e-83
-7.66975e-85
1.51415e-83
-4.00422e-84
2.3533e-83
-9.96362e-84
2.90391e-83
-2.23672e-83
8.99104e-83
4.88377e-83
6.38966e-83
3.14369e-83
5.2848e-83
-5.05205e-84
6.68853e-83
2.86009e-83
5.12411e-83
1.74814e-83
4.77229e-83
-1.39551e-83
1.45514e-82
9.65553e-83
1.008e-82
5.94847e-83
8.70762e-83
-7.74201e-84
1.08634e-82
1.04044e-83
1.06856e-82
4.2608e-83
8.68483e-83
2.52763e-83
7.86952e-83
-9.85351e-85
1.29702e-82
9.75608e-83
1.11944e-82
-5.78711e-84
1.07968e-82
2.77838e-83
8.07315e-83
1.99525e-83
6.09566e-83
1.87022e-83
4.9562e-83
1.51519e-84
5.6594e-83
1.3766e-83
9.44952e-83
6.31815e-83
1.11436e-82
6.82662e-83
8.12123e-83
4.85088e-83
5.84063e-83
3.13356e-83
6.74194e-83
1.83695e-83
7.80308e-83
5.19902e-83
5.41882e-83
3.2605e-83
4.14129e-83
1.40018e-83
3.74521e-83
1.44681e-83
2.87445e-83
9.70037e-84
2.18562e-83
8.11549e-84
1.73626e-83
2.0376e-84
1.95028e-83
8.55255e-84
2.22574e-83
2.66231e-84
1.7126e-83
2.57167e-84
1.30179e-83
2.29882e-84
9.94794e-84
2.00701e-84
1.18536e-83
9.91582e-85
1.34385e-83
6.81354e-84
9.4914e-84
4.12611e-84
7.34281e-84
1.70058e-84
6.51562e-84
1.58269e-84
5.46958e-84
2.02639e-84
4.21444e-84
1.34274e-84
3.45466e-84
1.51219e-85
2.85493e-84
2.93146e-85
2.67751e-84
-4.04101e-85
2.19099e-84
-4.75886e-86
1.83952e-84
4.25918e-85
1.40836e-84
3.1022e-85
1.12692e-84
-1.04375e-85
1.23295e-84
-3.81891e-85
1.15543e-84
-9.96608e-85
1.4126e-84
-1.6125e-84
1.8576e-84
-2.29692e-84
2.10502e-84
-2.33585e-84
2.19292e-84
-2.32019e-84
2.44613e-84
-2.38713e-84
2.55152e-84
-2.52376e-84
2.78124e-84
-2.46673e-84
2.92465e-84
-2.66987e-84
2.72131e-84
-2.07173e-84
2.6201e-84
-1.91077e-84
2.48228e-84
-1.97884e-84
2.38772e-84
-2.05543e-84
2.53077e-84
-2.27918e-84
2.56216e-84
-2.02844e-84
2.55646e-84
-1.67346e-84
2.42129e-84
-1.5991e-84
2.13298e-84
-1.27891e-84
1.80741e-84
-1.4836e-84
1.88467e-84
-1.57857e-84
1.58192e-84
-6.36197e-85
1.41014e-84
-1.19248e-84
1.18175e-84
-7.90549e-85
7.86612e-85
5.63583e-86
1.61813e-85
1.25428e-84
-9.25758e-86
1.11698e-84
-6.66528e-85
2.15178e-84
-1.16556e-84
3.00288e-84
-2.39073e-84
3.54675e-84
-2.52818e-84
2.66087e-84
-3.81897e-84
3.99106e-84
-4.87798e-84
3.76806e-84
-4.90844e-84
4.87142e-84
-5.61824e-84
5.03678e-84
-5.99485e-84
5.18719e-84
-5.93351e-84
5.03986e-84
-5.95764e-84
4.46138e-84
-5.61905e-84
2.12145e-84
-4.38585e-84
2.25619e-84
-3.8747e-84
2.03057e-84
-3.40928e-84
2.12404e-84
-2.11445e-84
1.39293e-84
-1.76402e-84
7.23332e-85
-1.29785e-84
2.29367e-85
4.30166e-85
9.0246e-85
1.81933e-85
3.2792e-85
6.88116e-85
-1.13416e-84
1.19704e-84
-1.19506e-84
1.45359e-84
-9.83097e-85
1.47447e-84
-1.07842e-84
1.74152e-84
-8.02721e-85
1.81523e-84
-6.78734e-88
-4.67578e-84
3.9114e-85
2.62839e-82
4.23349e-83
1.01093e-81
-5.19941e-81
-5.10938e-80
2.89353e-80
-4.49985e-79
5.69319e-79
-5.81551e-78
-3.34001e-78
-1.83273e-77
6.62693e-77
-2.84398e-75
6.95697e-77
2.27458e-73
-2.44908e-74
-4.65377e-72
3.15755e-74
-8.92987e-71
-2.26315e-71
-3.02577e-70
2.25718e-70
-7.22899e-69
5.43264e-69
3.37474e-68
6.66081e-69
-2.7754e-67
3.7644e-66
-2.97507e-66
-1.46424e-65
-9.47947e-64
5.78342e-64
8.35996e-63
1.37562e-62
1.58323e-61
1.62685e-61
3.10458e-60
4.55437e-61
-4.07035e-60
-0.00167356
-0.000513938
-4.25728e-05
-1.20588e-06
5.39912e-08
5.91783e-09
1.65309e-10
-5.0071e-13
-1.24792e-13
-2.78246e-15
-1.8473e-17
1.39609e-20
-4.04704e-21
1.53699e-22
2.9293e-24
-2.68429e-26
-3.91149e-28
-2.70273e-31
8.08087e-33
2.53692e-35
-1.392e-37
-1.309e-39
1.48898e-41
-4.78224e-44
-2.28884e-46
2.9989e-48
-2.21347e-50
1.82096e-52
-1.18759e-54
3.54523e-57
-0.00165972
1.728e-12
8.39112e-13
4.42037e-13
1.87489e-11
4.64159e-11
-1.28033e-12
-1.70787e-11
2.78385e-10
7.42729e-10
-8.40851e-10
-6.23045e-09
-8.40976e-09
1.26668e-08
5.61427e-08
-5.03586e-09
-5.45486e-07
-2.09866e-06
-4.49622e-06
-4.6067e-06
7.92089e-06
5.97371e-05
0.000202068
0.00052148
0.00115919
0.00229842
0.00419868
0.00711347
0.01142
0.0174368
0.0252071
0.0348575
0.0472874
0.061516
0.0775869
0.0946254
0.112188
0.130986
0.148075
0.162221
0.174587
0.182165
0.185354
0.184615
0.175159
0.166422
0.151587
0.133084
0.112612
0.0892743
0.0652355
0.041279
0.0190343
-0.00248652
-0.0220803
-0.037347
-0.0517213
-0.062018
-0.0688326
-0.0727969
-0.0715727
-0.0725938
-0.0704452
-0.0655525
-0.0608939
-0.0557778
-0.050789
-0.0454566
-0.0381951
-0.033535
-0.0283484
-0.0233471
-0.0192822
-0.0159595
-0.0128012
-0.0101444
-0.00782719
-0.00628141
-0.00488493
-0.00388643
-0.00238992
-0.00163664
-1.6942e-14
-9.30531e-14
-5.2805e-14
-1.93847e-13
-6.77221e-14
-3.04219e-14
-1.06633e-13
3.12215e-13
-2.58713e-13
-6.36278e-13
7.37644e-13
8.02618e-13
8.02331e-14
-4.66451e-14
4.06608e-14
-3.53873e-14
-2.22715e-14
6.61538e-14
-6.0615e-14
2.03555e-14
-6.77242e-15
1.44638e-14
-1.05014e-13
-5.83361e-14
-1.60508e-13
1.12605e-13
1.29982e-13
-2.22586e-13
-9.23633e-14
2.29537e-14
-1.61625e-13
1.70584e-13
1.23899e-13
1.32371e-13
1.36745e-13
6.16531e-14
1.52345e-13
-1.61302e-13
-5.55286e-14
2.69301e-13
3.1053e-14
-4.38012e-14
6.11545e-14
-3.28336e-13
2.38159e-13
-1.95068e-13
-7.58827e-13
-9.77536e-13
-3.26557e-13
-1.68656e-13
-7.65716e-13
8.31893e-13
8.49642e-13
3.69042e-13
1.43877e-14
7.58808e-13
1.21862e-12
-4.60188e-14
-3.27724e-13
-1.78741e-12
-3.85408e-13
-6.35426e-13
-1.36346e-12
2.7331e-12
5.65366e-14
7.16099e-14
3.34524e-13
-5.37698e-13
-3.11701e-14
-2.48174e-12
-3.37561e-12
-4.78481e-12
-7.23222e-12
-4.72527e-12
-6.18089e-12
-9.11849e-12
-1.42398e-12
-2.21375e-11
3.83908e-12
-5.05653e-11
-7.35909e-12
-1.06358e-10
-4.12328e-11
-1.69367e-10
-9.60141e-11
-1.8937e-10
-1.6578e-10
-1.12457e-10
-1.99553e-10
1.33463e-10
-1.27496e-10
5.36048e-10
6.56445e-11
9.10772e-10
3.42553e-10
1.01346e-09
4.89328e-10
3.86174e-10
9.60646e-11
-1.25048e-09
-1.31464e-09
-3.84138e-09
-3.97139e-09
-6.18655e-09
-7.82081e-09
-6.07204e-09
-1.19944e-08
2.75389e-10
-1.413e-08
1.65643e-08
-1.10941e-08
4.57264e-08
1.15725e-10
8.65003e-08
2.18726e-08
1.32929e-07
4.63898e-08
1.58513e-07
6.5336e-08
1.30413e-07
4.42865e-08
3.05392e-09
-5.90894e-08
-2.73758e-07
-3.14137e-07
-7.28473e-07
-8.03076e-07
-1.32617e-06
-1.59805e-06
-1.89304e-06
-2.7273e-06
-2.02388e-06
-4.16925e-06
-9.21064e-07
-5.65242e-06
2.67872e-06
-6.65875e-06
1.08578e-05
-6.5065e-06
2.67599e-05
-3.19464e-06
5.51969e-05
4.40704e-06
0.000101176
2.20999e-05
0.000173716
5.10661e-05
0.000284568
0.000101137
0.000442577
0.000178513
0.000666068
0.000288299
0.000983012
0.000449697
0.00140071
0.000681324
0.00194989
0.000979236
0.0026771
0.00138593
0.00357507
0.00190631
0.00469894
0.00254383
0.00611867
0.00335962
0.00774323
0.00437004
0.00981594
0.00556891
0.0122894
0.00711905
0.0150721
0.00886412
0.0183544
0.0108195
0.0219113
0.0131329
0.0262533
0.015707
0.0309198
0.0187622
0.0359929
0.0218887
0.0419304
0.0255595
0.0478733
0.0293724
0.0543104
0.0332119
0.0616335
0.0375527
0.0682644
0.0419882
0.0763372
0.0466613
0.0848005
0.0523255
0.0927267
0.0574564
0.101104
0.0621823
0.108561
0.0670969
0.117297
0.0715801
0.124742
0.0765492
0.13169
0.0801082
0.139856
0.0846009
0.145391
0.0876017
0.150407
0.0895873
0.156698
0.0923821
0.160936
0.0947356
0.163348
0.0946422
0.166408
0.0953804
0.167245
0.0947073
0.167789
0.092517
0.165732
0.0900309
0.16483
0.0865169
0.161403
0.0831883
0.156667
0.0773165
0.152903
0.0728285
0.145508
0.0655833
0.137557
0.0574877
0.13069
0.0506784
0.121939
0.0432265
0.111873
0.0336346
0.102748
0.0256605
0.0916379
0.015662
0.080509
0.00550197
0.06986
-0.0035569
0.0578965
-0.0134074
0.0476013
-0.0227096
0.036523
-0.0307735
0.0251979
-0.0394938
0.0146777
-0.0483773
0.00457487
-0.0563841
-0.00486292
-0.0642322
-0.01465
-0.0710164
-0.0225847
-0.0778118
-0.0321773
-0.0831154
-0.0384642
-0.0885538
-0.0446423
-0.0927985
-0.0519788
-0.096915
-0.0572827
-0.100172
-0.0607352
-0.102345
-0.0656852
-0.104129
-0.0690354
-0.105254
-0.0716256
-0.105822
-0.0725837
-0.105463
-0.0741036
-0.10515
-0.07511
-0.103858
-0.0742899
-0.101882
-0.0755869
-0.10017
-0.0733636
-0.0972321
-0.0714057
-0.0938893
-0.0709643
-0.0912778
-0.0694163
-0.0882909
-0.066096
-0.0843288
-0.0645625
-0.0808953
-0.0618809
-0.0770012
-0.0591037
-0.0730038
-0.0557525
-0.0687407
-0.0528624
-0.0650545
-0.0500361
-0.0610074
-0.046414
-0.0564943
-0.0429881
-0.0521599
-0.0403551
-0.0488194
-0.0376878
-0.0454508
-0.0355169
-0.0424889
-0.0330686
-0.0393892
-0.0299873
-0.0359826
-0.0281454
-0.0331885
-0.0254185
-0.0300722
-0.0228794
-0.0272191
-0.0211007
-0.0248138
-0.018712
-0.0221605
-0.0170461
-0.0201576
-0.0156597
-0.0184181
-0.0141144
-0.01661
-0.0127142
-0.0149165
-0.0112982
-0.013328
-0.0101856
-0.011979
-0.00913605
-0.0106774
-0.00799876
-0.00942046
-0.00724091
-0.0084349
-0.00635623
-0.00744532
-0.00563949
-0.00657445
-0.00510743
-0.00584529
-0.00446615
-0.00507643
-0.00374445
-0.00436241
-0.00323875
-0.0039552
-0.003436
-0.00262888
-0.00364523
-1.80806e-16
1.83737e-15
1.47408e-13
4.28506e-12
3.3617e-11
-2.78358e-10
1.53215e-08
9.34188e-07
2.70906e-05
6.98101e-06
0.000321066
0.000227478
4.25286e-05
-4.07294e-38
-9.91788e-33
-1.45265e-29
-5.57611e-28
5.42825e-26
-5.699e-25
-1.122e-23
-2.63032e-23
-3.54204e-23
-1.24076e-23
1.25167e-23
-1.18295e-23
-1.86682e-23
1.21707e-23
2.16247e-23
1.45495e-23
8.51415e-24
-5.37761e-24
-1.9459e-23
-6.58807e-24
-3.27162e-23
-6.47875e-23
-5.72602e-23
-4.75633e-23
-4.34515e-23
-1.75988e-22
-1.0213e-22
-1.95931e-22
-5.14366e-22
-5.87835e-22
-7.62958e-22
-8.94351e-22
-7.37816e-22
-5.72145e-22
-3.08243e-22
-6.38108e-22
-1.04664e-21
-1.65782e-21
-2.00467e-21
-2.22103e-21
-1.6759e-21
-8.33412e-22
6.21531e-22
1.60673e-21
1.41766e-21
6.36738e-22
-4.96657e-22
-2.08387e-21
-3.56725e-21
-4.55228e-21
-4.59325e-21
-3.91016e-21
-2.08979e-21
-9.21772e-22
5.26005e-22
1.26213e-21
2.18386e-21
2.12825e-21
2.35437e-21
2.14226e-21
1.45336e-21
1.11231e-21
7.50656e-22
3.97561e-22
1.58329e-22
2.78846e-23
-8.81112e-23
-1.4446e-22
-1.12638e-22
-1.03264e-22
-6.62121e-23
-4.42409e-23
-2.75953e-23
-1.73462e-23
-8.64316e-24
-6.63743e-24
-1.03492e-23
-9.00761e-24
-1.35967e-23
-1.55343e-23
-1.48109e-23
-9.24308e-24
-1.11697e-23
-8.31331e-24
-5.46234e-24
-5.01632e-24
-2.37909e-24
-1.68306e-24
-9.77402e-25
3.55767e-25
1.39592e-24
1.13842e-24
1.49027e-24
1.492e-24
1.64634e-24
1.42141e-24
3.78243e-24
-2.06218e-22
1.94728e-19
2.20995e-18
-6.67422e-60
8.48411e-06
7.01472e-06
0.000320674
0.000182688
-6.06763e-05
-1.31151e-06
9.21348e-08
-2.30217e-08
-1.14366e-09
-1.48016e-11
5.24784e-13
2.19213e-14
2.79248e-16
2.32924e-19
2.12072e-20
-1.1295e-22
-2.95463e-23
-4.86842e-26
4.27326e-27
2.07054e-29
-6.54542e-32
-5.35802e-34
-5.343e-37
2.29035e-38
-6.61687e-41
-7.0893e-43
7.24231e-45
-2.29818e-47
-4.80264e-50
1.38198e-51
-1.83768e-53
1.84472e-55
-1.60579e-14
-9.52987e-58
1.01362e-12
-3.31054e-12
4.79832e-12
3.4087e-11
3.50923e-11
-3.46563e-11
7.27482e-11
5.49919e-10
4.4028e-10
-3.18211e-09
-8.67147e-09
-2.19072e-09
3.50896e-08
5.55599e-08
-1.81043e-07
-1.17013e-06
-3.27701e-06
-5.32213e-06
-1.09568e-06
2.6664e-05
0.000114397
0.000331258
0.000789654
0.00164335
0.00310742
0.00552743
0.0090195
0.0140558
0.0210946
0.0298432
0.0410182
0.0539542
0.0687214
0.0866904
0.103411
0.121755
0.138544
0.153629
0.169168
0.176959
0.181916
0.1845
0.180817
0.172264
0.160402
0.142084
0.12415
0.100712
0.0765808
0.0536302
0.0296352
0.00819091
-0.0118634
-0.029001
-0.045418
-0.0552152
-0.0637811
-0.070017
-0.0721549
-0.0724837
-0.0721553
-0.0667856
-0.0649148
-0.058545
-0.053245
-0.0471152
-0.0408873
-0.0357117
-0.030191
-0.0251799
-0.0216447
-0.0173542
-0.0139266
-0.0112621
-0.00876056
-0.00703443
-0.00539688
-0.00430076
-0.00389033
4.49441e-14
6.97691e-14
6.78008e-14
1.40808e-13
6.5934e-14
2.27565e-13
-2.30456e-13
-2.68074e-13
8.82319e-13
-2.83738e-13
-5.82669e-13
4.22984e-15
5.36069e-15
-2.12414e-14
3.9147e-14
-2.60631e-14
-4.19158e-14
6.61676e-14
-5.30456e-14
2.82131e-14
-2.79106e-12
-6.26271e-15
-1.70186e-14
-9.01455e-13
-1.65603e-11
1.504e-11
-8.89781e-10
-1.21563e-07
-5.65842e-06
-7.37773e-05
1.84889e-13
-3.73125e-35
-4.37699e-31
-1.37446e-28
4.02313e-27
-1.8899e-25
4.05398e-24
1.83715e-23
2.92337e-23
3.13038e-23
-5.44121e-24
-4.98083e-24
1.15116e-23
-2.23231e-24
-3.99025e-23
-7.03232e-24
5.63461e-24
-2.11021e-24
2.56338e-24
-5.08553e-24
2.3838e-23
-4.27286e-23
-8.3999e-23
-1.26259e-22
-2.67821e-22
9.20649e-23
4.50271e-23
-6.06176e-23
5.19587e-24
-7.43675e-22
-1.37069e-21
-1.06334e-21
-9.64374e-22
-8.0997e-22
-7.92094e-22
-6.70873e-22
-1.05795e-21
-1.87004e-21
-2.77555e-21
-2.0487e-21
-2.25985e-21
-1.05729e-21
1.38031e-22
1.07247e-21
1.58726e-21
1.13565e-21
1.23012e-23
-1.53984e-21
-3.11205e-21
-4.42504e-21
-4.80803e-21
-4.26699e-21
-2.88401e-21
-1.9549e-21
1.58576e-22
8.69473e-22
1.94266e-21
2.61256e-21
2.52069e-21
2.20549e-21
2.00655e-21
1.28403e-21
9.58889e-22
5.81097e-22
3.0761e-22
3.88943e-23
-4.26311e-23
-1.09553e-22
-1.52813e-22
-1.03692e-22
-9.54085e-23
-5.38463e-23
-3.2555e-23
-1.6278e-23
-6.72559e-24
-3.47481e-24
-6.52079e-24
-3.56937e-24
-8.26327e-24
-1.20528e-23
-1.22058e-23
-1.83668e-23
-1.0611e-23
-7.80189e-24
-8.86132e-24
-6.76224e-24
-5.06851e-24
-2.88581e-24
-1.81298e-24
1.33087e-25
8.67113e-25
1.1387e-24
1.39976e-24
1.34993e-24
1.57883e-24
1.43332e-24
9.78667e-25
-6.74606e-24
-1.41102e-20
5.64129e-18
-7.62134e-60
6.31333e-40
-1.57393e-09
-9.54065e-12
1.04161e-12
3.05367e-14
3.42698e-16
-7.28911e-19
4.27427e-20
-5.10282e-22
-5.47472e-23
-6.42571e-26
6.83661e-27
3.26172e-29
-9.01257e-32
-7.37647e-34
-1.28202e-36
3.67789e-38
-1.05145e-40
-1.20276e-42
1.14805e-44
-3.60136e-47
-8.68006e-50
2.38233e-51
-3.37658e-53
3.67548e-55
-2.45696e-57
-3.80056e-12
-7.70371e-12
1.08824e-11
1.23678e-11
-4.12811e-11
-4.2285e-11
4.4323e-10
8.88101e-10
-8.49529e-10
-6.30653e-09
-5.93499e-09
2.27432e-08
7.26175e-08
-7.57077e-09
-6.82734e-07
-2.72896e-06
-6.55769e-06
-1.04579e-05
-6.94469e-06
2.38083e-05
0.00011971
0.000345095
0.000814186
0.00165311
0.0030821
0.00517995
0.0083348
0.0127133
0.0180636
0.0250552
0.0335771
0.0429386
0.0544228
0.0645728
0.0763794
0.0868396
0.0954123
0.104387
0.106353
0.106347
0.104337
0.0967512
0.0852046
0.073133
0.0543341
0.0387128
0.0170124
-0.00427612
-0.0226841
-0.0429814
-0.0602483
-0.0759371
-0.088695
-0.0987651
-0.105319
-0.108445
-0.110033
-0.10811
-0.103789
-0.0994481
-0.0914725
-0.0849069
-0.0756327
-0.068357
-0.060132
-0.051907
-0.0446069
-0.0376507
-0.0313065
-0.0263777
-0.0211534
-0.0170977
-0.0137727
-0.0107474
-0.00852582
-0.0066188
-0.00522521
-0.0043641
-7.1103e-14
-2.44997e-14
-1.32041e-13
-6.22988e-14
-3.25283e-13
-5.46361e-13
3.23576e-14
-2.30483e-13
-2.67172e-14
1.63627e-14
-1.83988e-14
-2.10783e-16
-2.06077e-14
4.12022e-14
-3.5816e-14
1.30122e-14
-4.18471e-15
2.52413e-16
3.69135e-14
9.36403e-11
-4.55118e-10
1.36374e-08
1.096e-06
4.30175e-05
1.79345e-36
9.77373e-29
-8.70618e-29
-6.73594e-26
-3.12519e-24
7.38285e-24
1.94543e-23
-1.5744e-23
-4.83931e-23
1.73243e-23
4.21362e-23
5.35635e-23
1.72425e-23
7.32947e-23
-1.82945e-23
-1.17441e-23
1.05764e-23
4.71099e-24
-1.98114e-23
-3.53792e-24
1.84479e-22
1.80075e-22
1.08086e-22
1.92641e-22
4.10113e-22
5.62114e-22
8.14079e-22
1.00183e-21
7.28057e-22
1.32709e-21
6.58454e-22
-3.50954e-23
1.53512e-23
9.51478e-22
1.33978e-21
1.524e-21
8.70347e-22
9.27441e-22
-1.5256e-21
-2.14321e-21
-2.93013e-21
-1.75798e-21
1.07599e-21
2.73187e-21
4.19303e-21
4.48365e-21
3.55971e-21
1.33048e-21
-1.11905e-21
-3.103e-21
-4.51142e-21
-6.13836e-21
-4.40423e-21
-4.44654e-21
-3.05575e-21
-1.62343e-21
-9.78451e-22
-4.25021e-22
4.59225e-22
4.02461e-22
6.84574e-22
6.87137e-22
6.67203e-22
3.58375e-22
3.08735e-22
1.98464e-22
5.2524e-23
1.88282e-23
-5.28261e-23
-3.71201e-23
-3.17612e-23
-2.49388e-23
-1.00856e-23
2.11397e-24
1.38821e-23
2.40509e-23
2.22281e-23
1.83744e-23
2.00777e-23
7.65092e-24
1.39772e-23
1.2698e-23
3.70856e-24
5.25333e-24
1.85246e-24
1.33913e-25
-2.57621e-24
-2.85353e-24
-5.05727e-24
-4.50687e-24
-1.49347e-24
-2.80512e-24
-1.0085e-24
-1.29543e-24
-9.06065e-25
-2.30852e-23
1.93926e-21
-1.32718e-18
-2.02636e-13
-3.70724e-15
-1.66207e-17
3.04264e-20
-6.22717e-21
3.05399e-22
4.86022e-24
-4.30486e-26
-6.19661e-28
-5.29158e-31
1.06233e-32
4.17394e-35
-1.96742e-37
-2.19778e-39
2.56693e-41
-7.32952e-44
-3.96494e-46
4.95725e-48
-3.81929e-50
3.40978e-52
-2.33501e-54
8.388e-57
6.3874e-13
-5.52133e-12
3.00762e-12
2.4833e-11
-9.84355e-13
-8.0914e-11
1.181e-10
7.55856e-10
4.85927e-10
-3.30921e-09
-8.13929e-09
3.51212e-09
4.91469e-08
6.82883e-08
-2.32122e-07
-1.47814e-06
-4.45002e-06
-8.7369e-06
-1.05151e-05
3.30214e-06
5.97152e-05
0.000209293
0.000544352
0.00117376
0.00227304
0.00403316
0.00663113
0.0103477
0.015322
0.021371
0.029379
0.0383226
0.0484904
0.0596213
0.0702841
0.0822926
0.0919183
0.0998062
0.10635
0.107619
0.106177
0.102244
0.0902564
0.0800758
0.0648788
0.0466537
0.0283895
0.00771937
-0.0134166
-0.0332787
-0.0519676
-0.0680803
-0.0823102
-0.0939884
-0.102658
-0.107177
-0.10942
-0.109762
-0.105344
-0.101835
-0.0957051
-0.0880318
-0.080083
-0.0719253
-0.0647038
-0.0565659
-0.0479603
-0.0413927
-0.0347309
-0.0288024
-0.0235167
-0.0193011
-0.0154438
-0.0122669
-0.00952398
-0.00757973
-0.00591146
-0.00468564
1.15444e-14
7.64369e-14
7.17937e-14
3.93221e-14
3.5225e-13
5.49733e-14
5.72018e-13
4.49584e-13
-1.02298e-12
8.68442e-15
-1.11337e-14
2.03297e-14
-2.22164e-14
-1.71769e-14
2.30292e-14
-2.49427e-14
1.26029e-14
-1.72305e-14
-1.44255e-12
-3.39847e-11
-1.06867e-10
4.27749e-10
-1.27956e-07
-7.61707e-06
-0.000179104
4.13394e-30
5.77866e-28
-3.21295e-26
1.14796e-24
1.17345e-24
-1.96945e-23
-5.3152e-24
5.32883e-23
1.86281e-23
-3.00159e-23
-6.36294e-23
-3.61432e-23
-4.78481e-23
-1.04398e-23
3.01734e-23
-2.67585e-23
-1.41031e-23
-7.51377e-24
-4.63269e-23
6.34353e-23
2.0021e-22
2.12705e-22
4.19556e-22
-1.06456e-22
2.49491e-22
5.54114e-22
3.51973e-22
1.10975e-21
2.06539e-21
1.12891e-21
4.9313e-22
1.87221e-22
1.58568e-21
2.01677e-21
2.03531e-21
2.43662e-21
2.05284e-21
-6.43777e-22
-1.21421e-21
-2.8321e-21
-1.76128e-21
1.69032e-23
1.41808e-21
3.5234e-21
4.32838e-21
4.38809e-21
2.81606e-21
-4.47645e-23
-2.427e-21
-4.39832e-21
-4.48582e-21
-4.48041e-21
-4.02577e-21
-4.33071e-21
-1.92363e-21
-1.7909e-21
-5.18796e-22
2.832e-22
3.44552e-22
5.37184e-22
6.60512e-22
6.26002e-22
4.47284e-22
3.71874e-22
2.48776e-22
1.11579e-22
4.08692e-23
-1.72867e-23
-2.07361e-23
-4.24297e-23
-3.44616e-23
-3.26871e-23
-5.37785e-24
1.26042e-23
5.63494e-24
1.3219e-23
1.31948e-23
1.61296e-23
1.22603e-23
1.60346e-23
7.56434e-24
4.20043e-24
7.38624e-24
3.83943e-24
4.14666e-24
4.60131e-25
-2.78217e-24
-2.41116e-24
-2.62313e-24
-2.82144e-25
-2.10005e-24
-7.18404e-25
-1.13797e-24
-8.08859e-25
6.01508e-25
8.34668e-23
9.67752e-20
-1.15485e-07
1.97023e-10
9.49041e-09
1.46821e-07
-4.39285e-08
2.85363e-16
-7.40867e-14
3.09356e-14
-3.00893e-14
1.36144e-15
8.14906e-12
9.29033e-34
1.38673e-31
1.72444e-38
2.18606e-36
-6.77069e-36
-1.39668e-34
-1.28702e-34
3.35303e-34
-3.59936e-34
4.88702e-33
-2.58375e-34
1.05465e-32
6.54604e-34
2.19978e-33
1.88119e-33
-1.85195e-32
2.63591e-33
-3.51396e-32
2.88465e-33
-3.84193e-32
3.49412e-33
-3.07916e-32
4.9264e-33
-3.61908e-32
-1.90016e-33
-1.09103e-31
-3.30595e-32
-1.58016e-31
-1.03935e-31
-4.59489e-33
-3.33098e-31
8.37128e-31
-4.63177e-31
5.22433e-30
1.52374e-30
1.54638e-29
6.55727e-30
1.43485e-29
1.28267e-29
-3.7184e-30
1.61423e-29
-1.8895e-29
1.59359e-29
-1.21163e-29
1.46285e-29
2.38118e-30
1.44728e-29
-1.02093e-30
1.5114e-29
-1.22477e-29
1.54918e-29
-1.00249e-29
1.71936e-29
-2.87379e-30
1.92071e-29
-7.80925e-30
1.89962e-29
-1.30657e-29
1.59666e-29
-3.55076e-30
1.30155e-29
1.14532e-29
1.28299e-29
1.03077e-29
1.37926e-29
1.90787e-30
1.35361e-29
-6.13516e-30
1.24366e-29
-1.23026e-29
1.07836e-29
-1.31738e-29
6.81367e-30
-7.61497e-30
3.38717e-30
3.15215e-30
1.17383e-30
8.20022e-30
1.38221e-31
5.60153e-30
1.82703e-33
-1.75612e-31
9.48901e-32
-3.50625e-30
9.82984e-32
-2.85971e-30
4.37445e-32
-1.26995e-30
8.87801e-33
-2.29381e-31
5.2566e-34
-2.48656e-33
-1.30276e-34
4.75684e-33
-2.1151e-35
2.22707e-34
4.66216e-36
-2.13374e-34
-6.69672e-38
2.06745e-35
-3.56892e-38
6.37957e-37
1.57073e-39
-1.45038e-37
3.64588e-42
4.48897e-39
-3.54121e-45
3.17913e-41
2.38743e-49
-2.84756e-44
0
5.9724e-48
0
0
0
0
0
0
0
0
0
0
0
0
0
0
0
0
0
0
0
0
0
0
0
0
0
0
0
0
0
0
0
0
0
0
0
0
0
0
0
0
0
0
0
0
0
0
0
0
0
0
0
0
0
0
0
0
0
0
0
0
0
0
0
0
0
0
0
0
0
0
0
0
0
0
0
0
0
0
0
0
0
0
0
0
0
-2.28536e-15
0
0
0
0
0
0
0
0
0
0
0
0
0
0
0
0
0
0
0
0
0
0
0
0
0
0
0
0
0
0
0
0
0
0
0
0
-9.60813e-137
0
-2.7763e-130
-2.00408e-132
-6.6591e-121
-8.30189e-121
-9.39744e-121
-1.16994e-120
-1.84137e-117
1.72134e-119
-2.71695e-112
-3.35546e-112
1.53325e-110
1.91776e-110
1.78412e-109
-5.77452e-109
1.21469e-106
2.61601e-107
1.17107e-104
1.20632e-104
5.95822e-103
-1.34522e-103
-9.67905e-101
-1.7065e-100
-5.22468e-101
-1.30599e-100
-2.32953e-101
-8.61836e-101
-8.58121e-101
-8.23599e-101
-1.12363e-97
-1.38386e-97
-1.54343e-97
-1.8144e-97
1.66173e-98
-1.516e-97
3.91424e-93
4.96423e-93
7.55848e-93
9.29729e-93
7.20594e-93
-3.06965e-94
2.29479e-91
7.41743e-93
1.71381e-90
2.04371e-90
3.9864e-90
-7.76576e-90
1.41962e-88
1.47601e-88
1.40153e-87
1.49138e-87
8.51335e-88
9.90571e-88
1.70473e-87
-3.90137e-87
6.76648e-87
2.48366e-87
5.67267e-86
4.55251e-86
4.96254e-86
1.44446e-86
6.35035e-85
4.87283e-85
7.99777e-85
6.35018e-85
5.72702e-85
3.96149e-85
5.88235e-85
3.92398e-86
1.01155e-84
7.28466e-85
9.35585e-85
6.20862e-85
1.80805e-84
6.29058e-85
1.44401e-84
-5.91501e-86
1.66843e-84
-3.84447e-85
1.47835e-83
1.28284e-83
2.08351e-83
-3.86261e-83
2.49649e-83
-3.14446e-83
2.84038e-83
-2.79163e-83
2.64753e-83
-3.09645e-83
8.08709e-83
-1.57792e-82
9.48813e-83
-9.90638e-83
3.68764e-82
1.32947e-82
3.24401e-82
5.85413e-83
2.79237e-82
7.61732e-84
6.98528e-82
2.9635e-83
8.59398e-82
1.12011e-82
1.38684e-81
-1.80345e-81
2.21554e-81
-3.60871e-82
3.06817e-81
1.18041e-81
3.69949e-81
1.45371e-81
2.82017e-81
5.92216e-82
3.8393e-81
-5.33216e-82
3.19812e-81
-6.77017e-82
2.79622e-81
-8.4679e-82
3.93075e-81
1.06251e-81
5.07667e-81
2.58257e-81
3.87623e-81
1.57273e-81
6.03955e-81
2.24923e-81
6.55103e-81
3.41689e-81
4.87653e-81
2.1213e-81
4.45605e-81
-3.31416e-82
4.94307e-81
1.72374e-81
3.82332e-81
6.81928e-82
6.91082e-81
2.11272e-81
5.3465e-81
1.3828e-81
4.04387e-81
1.49713e-81
2.99116e-81
7.03773e-82
3.04595e-81
1.2388e-81
2.83483e-81
1.05926e-81
2.86248e-81
1.31862e-81
3.4378e-81
2.89854e-82
2.57252e-81
1.76028e-82
2.06586e-81
1.78451e-82
2.8945e-81
1.19913e-81
2.14401e-81
7.92735e-82
1.60481e-81
6.97479e-82
1.60673e-81
6.3617e-82
1.38671e-81
5.38049e-82
1.09601e-81
2.9519e-82
8.22659e-82
1.74255e-82
7.9267e-82
3.39464e-82
6.64809e-82
-5.87026e-83
8.83354e-82
2.99633e-82
6.57393e-82
1.18468e-82
4.93103e-82
8.96868e-83
3.72672e-82
6.73724e-83
4.37341e-82
1.64125e-82
3.35643e-82
1.0852e-82
2.51093e-82
9.26418e-83
2.22976e-82
7.67994e-83
1.90265e-82
7.33077e-83
1.40638e-82
4.79406e-83
1.10164e-82
1.74685e-83
9.45511e-83
2.13476e-83
7.56246e-83
1.8526e-83
6.37051e-83
2.29511e-83
4.57705e-83
7.31947e-84
3.29771e-83
3.94044e-84
2.49609e-83
-2.34341e-84
2.17509e-83
-1.16547e-83
2.2071e-83
-1.99808e-83
2.50269e-83
-2.36445e-83
2.80854e-83
-3.57238e-83
3.55006e-83
-4.31343e-83
3.87894e-83
-3.48193e-83
3.77447e-83
-3.44193e-83
3.91074e-83
-4.08012e-83
4.08551e-83
-3.45076e-83
4.27499e-83
-4.56292e-83
4.78757e-83
-4.51444e-83
4.25249e-83
-3.5228e-83
4.1044e-83
-3.90052e-83
4.10145e-83
-3.93489e-83
4.05953e-83
-3.5854e-83
3.61254e-83
-3.04325e-83
3.38759e-83
-2.33783e-83
2.71467e-83
-2.0522e-83
2.55642e-83
-1.87757e-83
1.40807e-83
-1.48383e-83
1.36209e-83
-1.29852e-83
1.12945e-83
-4.54035e-84
-1.68489e-84
1.32329e-84
3.11706e-84
-1.08709e-83
-6.71897e-84
1.90463e-83
-2.47898e-83
3.64431e-83
-4.35759e-83
3.75238e-83
-4.69027e-83
3.67301e-83
-6.48044e-83
6.76599e-83
-8.19912e-83
7.42066e-83
-9.2261e-83
6.89038e-83
-8.51947e-83
7.33787e-83
-1.00917e-82
8.95869e-83
-1.11618e-82
1.0116e-82
-1.11736e-82
6.95975e-83
-9.95245e-83
6.83548e-83
-8.96062e-83
6.63305e-83
-8.20912e-83
3.74866e-83
-5.80743e-83
4.59899e-84
-3.42593e-83
2.18679e-83
-1.80062e-83
-3.60727e-84
-1.11567e-83
-8.44856e-84
1.72638e-84
-2.02061e-83
2.48064e-83
-6.13082e-84
2.94524e-83
-2.10065e-83
3.72645e-83
-1.55924e-83
5.11164e-83
-1.25403e-83
5.01161e-83
-1.95549e-83
5.86102e-83
-2.28863e-83
6.0281e-83
-2.9917e-83
5.688e-83
-1.97186e-83
4.98624e-83
-1.70075e-83
4.05976e-83
-1.16871e-83
3.33664e-83
-1.22732e-83
4.19977e-83
1.54451e-83
-7.1948e-82
-2.85731e-82
-9.69673e-80
3.02884e-80
1.15886e-78
1.37561e-78
-2.11537e-78
6.1402e-78
-1.05206e-76
-1.39417e-77
-1.42658e-76
1.22389e-75
-1.2678e-75
1.25984e-74
-1.27413e-72
3.24939e-74
5.10492e-71
2.41349e-72
-2.06324e-69
2.05255e-70
-8.35132e-69
1.34321e-68
-2.36348e-68
2.57613e-67
-2.55141e-66
2.24086e-66
3.33171e-65
1.35172e-65
7.86857e-65
1.2875e-63
-3.36696e-64
-4.71156e-63
5.23579e-62
1.79755e-61
3.46479e-60
4.00488e-60
2.18414e-59
2.79435e-60
-6.46204e-61
1.28584e-10
-8.57109e-07
-4.72343e-05
0.000257324
0.000370397
-6.70046e-05
-3.74759e-08
1.40039e-07
-7.03375e-08
8.68546e-13
-6.47789e-15
2.3052e-14
2.36134e-16
-1.39129e-18
4.05426e-20
-4.62441e-22
-5.1611e-23
-9.51163e-26
5.73513e-27
2.92809e-29
-5.83503e-32
-6.0591e-34
-1.73116e-36
3.31359e-38
-7.22812e-41
-1.25142e-42
1.05939e-44
-2.75282e-47
-1.25284e-49
2.78791e-51
-3.63376e-53
3.75297e-55
-2.25224e-57
-2.95972e-60
1.56334e-12
2.44334e-14
-2.96155e-12
3.01556e-12
1.82799e-11
-6.71644e-12
-7.95435e-11
7.0162e-11
4.93774e-10
2.40203e-11
-3.17623e-09
-6.19227e-09
4.07623e-09
3.50146e-08
2.4666e-08
-2.56598e-07
-1.22587e-06
-3.22466e-06
-5.49031e-06
-4.42619e-06
1.03862e-05
5.80144e-05
0.000168878
0.000405671
0.000813447
0.0014994
0.00253759
0.00394328
0.00588884
0.00824851
0.0107903
0.0142227
0.0172398
0.0203495
0.0230008
0.024368
0.0260375
0.0252178
0.0224569
0.0189369
0.0117688
0.0038084
-0.00462287
-0.0165899
-0.0250693
-0.0349871
-0.043859
-0.0512715
-0.0561882
-0.0609567
-0.0632419
-0.0622057
-0.0615987
-0.0588055
-0.0546995
-0.0501361
-0.0426737
-0.0371642
-0.0317862
-0.0237632
-0.0199973
-0.0149446
-0.0103272
-0.00719193
-0.00415464
-0.00314181
-0.00182148
0.000143847
0.000472236
0.000885187
0.00112475
0.00140034
0.00124163
0.00120005
0.00120341
0.00123898
0.000978369
0.000684648
0.000352332
-6.25164e-14
-0.00294777
8.7311e-11
9.19121e-15
-5.42627e-14
-8.6577e-14
-9.9921e-14
-2.91669e-13
-3.46713e-13
-1.52849e-13
-3.41706e-13
-3.36968e-14
1.5531e-14
-1.36874e-14
-3.86407e-13
2.0926e-14
4.93868e-15
-8.78663e-15
9.35678e-16
1.65614e-14
-3.75809e-16
-2.77829e-14
2.71146e-14
-1.14548e-14
-7.99025e-16
4.60803e-15
2.59619e-15
8.66607e-15
1.32134e-15
-2.90686e-12
1.49871e-12
-1.3413e-13
7.84186e-13
-1.14603e-09
1.54256e-10
3.29408e-13
-2.33342e-14
1.6877e-13
-7.61297e-14
-1.30738e-13
6.70498e-14
4.04165e-14
-6.83025e-14
1.53014e-14
-1.20181e-13
-8.08509e-14
-3.10475e-13
-1.85142e-13