/*--------------------------------*- C++ -*----------------------------------*\
  =========                 |
  \\      /  F ield         | OpenFOAM: The Open Source CFD Toolbox
   \\    /   O peration     | Website:  https://openfoam.org
    \\  /    A nd           | Version:  7
     \\/     M anipulation  |
\*---------------------------------------------------------------------------*/
FoamFile
{
    version     2.0;
    format      ascii;
    class       volScalarField;
    location    "0.3";
    object      T;
}
// * * * * * * * * * * * * * * * * * * * * * * * * * * * * * * * * * * * * * //

dimensions      [0 0 0 1 0 0 0];

internalField   nonuniform List<scalar> 
23686
(
0.509941
0.910643
0.997281
0.975489
1.00718
1.01727
1.00286
1.00909
1.00026
1.00127
0.999751
0.999405
0.999891
0.999662
0.999995
0.99997
1.00001
1.00003
1.00001
1.00002
1
1
0.999999
0.999998
1
0.999999
1
1
1
1
1
1
1
1
1
1
1
1
1
1
1
1
1
1
1
1
1
1
1
1
1
1
1
1
1
1
1
1
1
1
1
1
1
1
1
1
1
1
1
1
1
1
1
1
1
1
1
1
1
1
1
1
1
1
1
1
1
1
1
1
1
1
1
1
1
1
1
1
1
1
1
1
1
1
1
1
1
1
1
1
1
1
1
1
1
1
1
1
1
1
1
1
1
1
1
1
1
1
1
1
1
1
1
1
1
1
1
1
1
1
1
1
1
1
1
1
1
1
1
1
1
1
1
1
1
1
1
1
1
1
1
1
1
1
1
1
1
1
1
1
1
1
1
1
1
1
1
1
1
1
1
1
1
1
1
1
1
1
1
1
1
1
1
1
1
1
1
1
1
0.11164
-0.00310637
-0.000317283
5.52239e-05
-1.03112e-05
1.75655e-07
1.73967e-07
-3.16196e-08
1.40437e-09
5.70109e-10
-1.9536e-10
-1.24953e-11
6.16961e-12
9.13594e-13
-8.08808e-14
-2.39166e-14
-1.49149e-15
1.06738e-16
2.8548e-17
1.62078e-18
-1.48375e-19
-2.72695e-20
-1.84865e-21
-1.53122e-23
1.20319e-23
1.25194e-24
6.02033e-26
-3.44363e-28
-3.11133e-28
-3.10094e-29
-1.86607e-30
-3.97194e-32
3.65807e-33
4.3314e-34
2.78038e-35
7.61371e-37
-1.7605e-38
-4.49778e-39
-3.08514e-40
-1.20134e-41
-1.80572e-43
1.73805e-44
1.61323e-45
8.61155e-47
3.40224e-48
5.17319e-50
-4.33144e-51
-4.32657e-52
-2.78968e-53
1.93847e-70
-3.17963e-54
7.86636e-53
3.1102e-51
-4.0567e-49
4.1621e-48
1.57094e-47
4.28886e-46
-9.02571e-44
4.01111e-43
5.75092e-41
1.52958e-39
-6.19756e-39
-4.42608e-38
1.48577e-37
4.29972e-36
-5.25072e-34
-2.0541e-33
2.21445e-33
-4.85256e-31
-1.54357e-31
2.28833e-29
-2.03537e-28
1.06499e-26
-6.86963e-27
-5.41348e-25
-1.8129e-24
-1.14042e-23
-6.36568e-23
-5.60912e-22
-5.0995e-22
1.33677e-21
-1.61035e-20
2.94269e-20
-6.36841e-20
2.94817e-19
-2.70069e-18
5.13974e-19
1.9447e-17
8.95828e-17
2.9421e-16
9.13398e-16
2.31769e-15
5.11622e-15
9.40317e-15
1.55211e-14
2.33549e-14
3.22945e-14
3.64258e-14
3.22058e-14
3.5981e-14
1
1
1
1
0.999996
0.999996
1.00001
1
1
1.00001
1
1
0.999977
0.999986
0.999975
0.999973
1.0001
1.00005
1.00006
1.0001
0.999872
0.999959
0.999824
0.999852
0.999758
0.999761
0.999921
0.999839
1.00067
1.00042
1.00187
1.00145
1.00257
1.00231
1.00093
1.00154
0.995788
0.997581
0.98382
0.987576
0.963663
0.970111
0.933196
0.942957
0.891751
0.904355
0.840912
0.855848
0.77975
0.797649
0.71212
0.732164
0.639386
0.661017
0.567374
0.588478
0.49587
0.516849
0.424033
0.44463
0.358578
0.37696
0.29841
0.315252
0.243935
0.258994
0.197617
0.210309
0.158412
0.169295
0.12394
0.133311
0.0968287
0.104144
0.0747793
0.0807292
0.0568202
0.0616611
0.0431319
0.0468925
0.0319773
0.0349738
0.0237316
0.0259418
0.0173467
0.0190353
0.0124444
0.0137116
0.00896074
0.00986764
0.00642601
0.00709422
0.00447573
0.00497165
0.00314076
0.00348233
0.00219138
0.00243556
0.00150428
0.00168201
0.00102139
0.00114323
0.000697043
0.000778311
0.000473427
0.000530543
0.000316744
0.000356451
0.000209485
0.000236105
0.000139262
0.000156859
9.23788e-05
0.000104331
5.9722e-05
6.78085e-05
3.90966e-05
4.42797e-05
2.52651e-05
2.86945e-05
1.59962e-05
1.82231e-05
1.03237e-05
1.1727e-05
6.63729e-06
7.5579e-06
4.13381e-06
4.73318e-06
2.62122e-06
2.9903e-06
1.65715e-06
1.89334e-06
1.03017e-06
1.1837e-06
6.3409e-07
7.28984e-07
3.97161e-07
4.54877e-07
2.44849e-07
2.81475e-07
1.50595e-07
1.73311e-07
9.05091e-08
1.04476e-07
5.54611e-08
6.38399e-08
3.40295e-08
3.92738e-08
2.02047e-08
2.34307e-08
1.22464e-08
1.41534e-08
7.33525e-09
8.50022e-09
4.33316e-09
5.0276e-09
2.58097e-09
2.98983e-09
1.54364e-09
1.79145e-09
8.92034e-10
1.04029e-09
5.27193e-10
6.12116e-10
3.10771e-10
3.61114e-10
1.79716e-10
2.09684e-10
1.06129e-10
1.23762e-10
6.05911e-11
7.09757e-11
3.528e-11
4.11897e-11
2.0152e-11
2.36068e-11
1.13239e-11
1.328e-11
6.4929e-12
7.59274e-12
3.74178e-12
4.38403e-12
2.07783e-12
2.44696e-12
1.18017e-12
1.38651e-12
6.79148e-13
8.00348e-13
3.88017e-13
4.62259e-13
2.2131e-13
2.66634e-13
1.31474e-13
1.59984e-13
7.27352e-14
4.40149e-14
8.89435e-14
-3.75873e-54
3.31018e-14
0.0139069
-0.00200415
0.000101501
-3.3009e-06
-3.4514e-06
5.29042e-07
-1.75633e-08
-9.31191e-09
1.95118e-09
-1.34953e-10
-8.22621e-11
6.58299e-12
2.92742e-12
9.67239e-14
-5.96046e-14
-7.06373e-15
-1.05551e-16
7.33167e-17
8.28062e-18
3.3835e-20
-7.66272e-20
-7.95034e-21
-3.27077e-22
1.97876e-23
4.23902e-24
3.06745e-25
7.85158e-27
-6.47332e-28
-1.08721e-28
-7.98924e-30
-3.45304e-31
2.92115e-33
1.45761e-33
1.15682e-34
5.38675e-36
4.98095e-38
-1.15543e-38
-1.29703e-39
-6.57605e-41
-1.83352e-42
1.78834e-44
5.85752e-45
3.91403e-46
1.76209e-47
5.32614e-49
-4.61476e-51
-1.5309e-51
-1.14122e-52
-0.00133341
-6.62766e-54
4.10684e-14
-2.61647e-53
5.21518e-52
7.96319e-50
-1.6792e-48
1.23387e-48
5.87735e-46
-1.9864e-45
2.4049e-43
-8.7479e-42
-3.01165e-40
-2.56228e-39
6.17468e-39
3.53918e-37
-2.63317e-36
6.70449e-35
1.52175e-33
-6.54248e-34
9.83978e-32
1.16542e-30
-1.27904e-29
1.03872e-28
-2.019e-27
-1.82065e-26
1.27474e-25
1.33092e-24
3.31639e-24
3.38877e-23
1.45968e-22
1.25363e-21
-2.98547e-21
1.02486e-20
2.58505e-20
-1.24744e-19
2.53487e-19
-9.82521e-19
-2.86994e-18
6.93261e-18
4.35497e-17
1.68101e-16
5.42923e-16
1.47647e-15
3.48782e-15
7.03767e-15
1.26254e-14
1.94442e-14
2.81859e-14
3.53618e-14
3.63443e-14
0.000148572
0.0642368
-2.77316e-05
0.453368
0.000140408
1.56764e-06
-1.07378e-05
1.40234e-06
-1.10904e-08
-2.87383e-08
5.39512e-09
-3.60085e-10
-2.74826e-10
2.05232e-11
9.97647e-12
4.46867e-13
-2.01457e-13
-2.68863e-14
-6.83143e-16
2.4349e-16
3.10749e-17
5.41475e-19
-2.64621e-19
-3.08236e-20
-1.42705e-21
4.84178e-23
1.55797e-23
1.23808e-24
3.93981e-26
-1.94908e-27
-4.04641e-28
-3.06069e-29
-1.49034e-30
-1.8498e-33
5.12774e-33
4.39073e-34
2.35721e-35
3.58897e-37
-3.71315e-38
-4.83379e-39
-2.73209e-40
-8.71331e-42
-8.86451e-45
2.1794e-44
1.62474e-45
7.44151e-47
2.50513e-48
8.29452e-53
-5.64826e-51
-4.25442e-52
-2.4428e-53
6.56743e-52
8.1726e-50
-1.94598e-48
5.27914e-48
7.00614e-46
-2.55308e-45
2.14449e-43
-1.02105e-41
-3.07563e-40
-2.42754e-39
6.19251e-39
3.51248e-37
-3.21288e-36
6.65577e-35
1.54313e-33
-7.68013e-34
1.08425e-31
1.12084e-30
-1.50754e-29
9.96247e-29
-2.09483e-27
-1.74924e-26
1.40866e-25
1.35616e-24
3.32256e-24
3.60472e-23
1.45613e-22
1.35251e-21
-3.34796e-21
1.13594e-20
2.92292e-20
-1.41842e-19
2.90851e-19
-1.22028e-18
-3.30536e-18
8.82271e-18
5.48683e-17
2.10102e-16
6.79048e-16
1.8544e-15
4.33788e-15
8.77943e-15
1.56884e-14
2.42271e-14
3.4852e-14
4.3637e-14
4.44062e-14
-2.94621e-53
-1.15058e-07
5.30592e-07
-8.54533e-08
2.63766e-09
1.6795e-09
-5.74917e-10
-4.71296e-11
2.11e-11
3.18736e-12
-2.29477e-13
-8.76109e-14
-5.9563e-15
2.86664e-16
1.0343e-16
6.84452e-18
-3.78999e-19
-1.01301e-19
-7.6562e-21
-1.40212e-22
3.67197e-23
4.66865e-24
2.59035e-25
1.73482e-27
-1.07158e-27
-1.2144e-28
-7.16393e-30
-2.09921e-31
1.15989e-32
1.65998e-33
1.08489e-34
3.73443e-36
-3.90388e-38
-1.49672e-38
-1.24989e-39
-5.43418e-41
-1.04978e-42
4.86067e-44
6.38667e-45
3.63722e-46
1.42468e-47
3.02432e-49
-1.44462e-50
-1.66183e-51
-1.04355e-52
4.08892e-51
-4.4789e-49
4.60239e-48
1.74122e-47
1.83227e-46
-9.94953e-44
6.72762e-43
6.39347e-41
1.57059e-39
-8.13668e-39
-3.36792e-38
3.55243e-37
5.24007e-36
-5.51512e-34
-1.9456e-33
1.88459e-33
-5.08169e-31
2.10847e-31
2.89716e-29
-2.06841e-28
1.11166e-26
-1.22059e-26
-5.7762e-25
-1.79877e-24
-1.21166e-23
-6.69803e-23
-5.96012e-22
-5.80728e-22
1.54948e-21
-1.7101e-20
3.12667e-20
-6.9763e-20
3.05374e-19
-3.22255e-18
7.61362e-19
2.44804e-17
1.12281e-16
3.70228e-16
1.14891e-15
2.89039e-15
6.35653e-15
1.17454e-14
1.94275e-14
2.90968e-14
3.98852e-14
4.48011e-14
4.03855e-14
-0.00528114
-0.0055602
1.18657e-52
0.594883
-0.00160948
0.942444
1.00338
0.979133
1.00791
1.01325
1.00265
1.00761
0.999944
1.00096
0.999656
0.999356
0.999885
0.999649
1
0.999959
1.00002
1.00003
1.00001
1.00002
1
1
0.999999
0.999999
1
0.999999
1
1
1
1
1
1
1
1
1
1
1
1
1
1
1
1
1
1
1
1
1
1
1
1
1
1
1
1
1
1
1
1
1
1
1
1
1
1
1
1
1
1
1
1
1
1
1
1
1
1
1
1
1
1
1
1
1
1
1
1
1
1
1
1
1
1
1
1
1
1
1
1
1
1
1
1
1
1
1
1
1
1
1
1
1
1
1
1
1
1
1
1
1
1
1
1
1
1
1
1
1
1
1
1
1
1
1
1
1
1
1
1
1
1
1
1
1
1
1
1
1
1
1
1
1
1
1
1
1
1
1
1
1
1
1
1
1
1
1
1
1
1
1
1
1
1
1
1
1
1
1
1
1
1
1
1
1
1
1
1
1
1
1
1
1
1
1
1
1
2.82809e-52
0.00261078
0.000236231
0.235597
-1.05684e-05
-3.4279e-06
7.53504e-07
-5.02956e-08
-9.70552e-09
3.7e-09
-2.30162e-10
-1.5494e-10
8.27866e-13
4.62411e-12
4.6201e-13
-3.64121e-14
-9.85784e-15
-5.62902e-16
5.24824e-17
1.25164e-17
8.31509e-19
-1.94463e-20
-7.90506e-21
-7.36049e-22
-2.32855e-23
1.99605e-24
3.46124e-25
2.09247e-26
5.5688e-28
-4.40558e-29
-6.98875e-30
-4.60757e-31
-1.54237e-32
3.70995e-34
7.93167e-35
6.09467e-36
2.54792e-37
3.52116e-39
-5.39224e-40
-5.38613e-41
-3.03973e-42
-8.52686e-44
6.56815e-46
2.83913e-46
1.96439e-47
8.7768e-49
2.45103e-50
-1.02625e-52
-5.31002e-53
7.99523e-51
-0.00445077
-0.00527211
-0.00421272
-4.85102e-54
5.71447e-14
8.83073e-14
-1.31508e-05
-1.11902e-05
0.517419
-7.24304e-49
8.01259e-48
5.42997e-47
-8.22818e-46
-1.30513e-43
9.11817e-43
8.6947e-41
2.0668e-39
-1.21904e-38
-1.28583e-38
4.77855e-37
1.05839e-35
-7.61806e-34
-3.11261e-33
5.58618e-33
-7.08749e-31
-3.99251e-31
5.54989e-29
-3.96078e-28
1.57481e-26
-9.23795e-27
-8.23203e-25
-3.04754e-24
-1.78813e-23
-1.06253e-22
-8.88192e-22
-1.64217e-21
4.2976e-21
-2.7705e-20
2.6888e-20
-3.23349e-20
2.36537e-19
-4.90358e-18
3.41833e-18
4.15312e-17
1.8148e-16
5.89605e-16
1.7995e-15
4.42469e-15
9.54003e-15
1.74654e-14
2.81419e-14
4.24089e-14
5.67402e-14
6.27865e-14
5.12673e-14
6.6963e-14
0.0528654
0.185682
0.025489
7.61726e-05
0.000473595
6.62954e-05
7.89813e-06
0.999999
1
0.999998
0.999998
1.00001
1
1
1.00001
0.999999
1
0.99998
0.999986
0.999991
0.999971
1.00009
1.00006
1.00004
1.0001
0.999893
0.999961
0.999878
0.99988
0.999783
0.999744
0.999961
0.999754
1.00076
1.00036
1.00186
1.00146
1.00236
1.00258
1.00063
1.0022
0.995381
0.99923
0.982989
0.99013
0.962746
0.973294
0.932726
0.947349
0.891287
0.911063
0.838855
0.861551
0.778664
0.804784
0.711991
0.740042
0.640844
0.670597
0.568231
0.597338
0.497105
0.5249
0.426077
0.453634
0.359245
0.384018
0.298964
0.321006
0.245082
0.264762
0.198278
0.21506
0.159045
0.17275
0.125236
0.137153
0.0974518
0.107059
0.0750134
0.0825132
0.0575601
0.0635689
0.0436438
0.0482043
0.0325861
0.0362886
0.0240529
0.0268262
0.0175582
0.0196485
0.012627
0.0142056
0.00907703
0.0102137
0.00650008
0.00730066
0.00456018
0.00516359
0.00318004
0.00360672
0.00221182
0.00250809
0.00153914
0.00174615
0.00104862
0.00119969
0.000700329
0.000801087
0.000481191
0.000548212
0.000324355
0.00037127
0.000214277
0.000246516
0.000142181
0.000163419
9.4389e-05
0.000108239
6.17295e-05
7.13332e-05
4.01258e-05
4.63492e-05
2.58644e-05
2.99365e-05
1.64045e-05
1.90767e-05
1.05985e-05
1.2279e-05
6.7871e-06
7.85068e-06
4.2749e-06
4.9798e-06
2.68775e-06
3.13277e-06
1.68831e-06
1.96489e-06
1.06699e-06
1.24016e-06
6.60007e-07
7.73409e-07
4.03776e-07
4.72093e-07
2.52477e-07
2.95011e-07
1.54627e-07
1.80943e-07
9.33418e-08
1.0985e-07
5.71896e-08
6.70758e-08
3.52093e-08
4.11426e-08
2.11168e-08
2.48961e-08
1.26902e-08
1.49324e-08
7.55451e-09
8.89192e-09
4.48997e-09
5.30044e-09
2.66232e-09
3.1442e-09
1.59022e-09
1.87026e-09
9.32752e-10
1.10426e-09
5.45296e-10
6.45961e-10
3.16895e-10
3.74548e-10
1.87887e-10
2.22197e-10
1.10393e-10
1.30048e-10
6.38029e-11
7.5806e-11
3.67814e-11
4.36629e-11
2.0925e-11
2.48757e-11
1.17845e-11
1.40796e-11
6.76548e-12
8.05267e-12
3.88437e-12
4.60464e-12
2.19076e-12
2.61508e-12
1.2275e-12
1.46707e-12
7.08056e-13
8.41334e-13
4.23375e-13
5.00001e-13
2.61067e-13
3.11701e-13
0.759785
-3.80351e-53
-0.000422166
0.806072
3.16102e-52
0.000213935
1.17637e-51
-2.23068e-53
6.46403e-07
1.67898e-07
-4.58537e-08
3.93958e-09
9.99584e-10
-3.2613e-10
-3.981e-11
7.35788e-12
1.85654e-12
3.03216e-14
-2.54769e-14
-2.81463e-15
-1.07347e-17
3.07932e-17
3.84467e-18
9.35232e-20
-1.87179e-20
-2.67206e-21
-1.60649e-22
7.73467e-25
9.76116e-25
9.53083e-26
4.02465e-27
-1.61616e-29
-2.12301e-29
-1.93335e-30
-9.68612e-32
-1.19913e-33
2.26666e-34
2.50879e-35
1.28378e-36
4.14677e-38
-8.41756e-40
-1.89509e-40
-1.34417e-41
-5.80197e-43
-7.81966e-45
7.02166e-46
8.18833e-47
4.27377e-48
1.63474e-49
2.55772e-51
-1.70379e-52
9.93422e-51
-2.09269e-07
7.98776e-50
-2.41281e-48
1.47595e-47
1.01213e-45
-7.86248e-45
2.83475e-43
-1.30744e-41
-3.59475e-40
-4.01568e-39
1.07444e-38
4.85875e-37
-4.6619e-36
6.14629e-35
2.18326e-33
1.51236e-34
1.29611e-31
1.60268e-30
-2.10118e-29
1.0276e-28
-2.28072e-27
-2.7867e-26
1.93193e-25
1.96917e-24
4.96494e-24
5.32388e-23
2.03503e-22
2.15593e-21
-4.70211e-21
1.55265e-20
5.19514e-20
-2.29755e-19
4.92297e-19
-2.33544e-18
-3.77328e-18
1.63178e-17
8.98189e-17
3.3249e-16
1.06039e-15
2.89867e-15
6.54328e-15
1.29898e-14
2.28221e-14
3.54466e-14
4.95757e-14
6.11498e-14
6.18518e-14
1.61653e-06
1.23956e-11
1.29809e-51
-1.33968e-11
1.60854e-13
-2.75234e-05
-4.20856e-10
7.51854e-14
6.80722e-14
5.06412e-14
3.3224e-14
2.05669e-14
1.12233e-14
5.17251e-15
2.06983e-15
6.79855e-16
2.05751e-16
4.59561e-17
2.94635e-18
-5.78136e-18
3.58375e-19
-6.3575e-20
3.97047e-20
-3.21324e-20
4.18849e-21
-1.62579e-21
-1.05533e-21
-1.22476e-22
-2.13325e-23
-3.31779e-24
-9.86402e-25
-2.25815e-26
1.86845e-26
-3.80268e-28
6.28673e-29
4.83417e-31
-8.66185e-31
4.29403e-33
-3.16953e-33
-9.20847e-34
1.21717e-35
9.03891e-37
-2.50281e-38
-1.69123e-38
2.50358e-39
1.08795e-40
1.44199e-42
-1.67593e-43
-4.58253e-46
4.83466e-47
-2.09851e-52
5.76833e-52
1.13184e-49
3.48895e-48
7.60501e-47
8.51764e-46
-8.13336e-46
-4.06596e-43
-1.11909e-41
-1.83416e-40
-1.52987e-39
2.21264e-38
9.75232e-37
2.26605e-35
2.6395e-34
3.88237e-34
-6.72114e-32
-1.68371e-30
-2.2945e-29
-9.81289e-29
2.58969e-27
8.17901e-26
1.04146e-24
4.61836e-24
-1.08175e-22
-2.51711e-21
-2.33014e-20
-7.15755e-21
3.17161e-18
3.569e-17
1.12167e-16
-2.09453e-15
-2.93043e-14
-5.5956e-14
1.62254e-12
7.28365e-14
7.29844e-14
5.92472e-14
4.20434e-14
2.69294e-14
1.52491e-14
7.67578e-15
3.3534e-15
1.21798e-15
3.79586e-16
1.00644e-16
1.746e-17
-4.81786e-18
-2.59047e-18
5.66981e-19
-2.64941e-19
5.94095e-20
1.8902e-20
-5.68609e-21
2.46749e-21
2.4687e-22
6.31074e-23
5.75066e-24
2.29012e-24
2.48071e-25
-2.9661e-26
-3.18623e-27
1.34853e-28
-2.72449e-29
1.79312e-30
1.7365e-31
-1.22785e-33
2.48089e-33
9.27748e-35
-6.19703e-36
5.43556e-37
1.1746e-38
-3.85618e-39
-4.60361e-40
-1.78495e-41
3.11418e-43
1.12176e-49
-4.56964e-52
1.37864e-50
6.65001e-49
1.69752e-47
2.8704e-46
1.841e-45
-4.51208e-44
-2.36354e-42
-4.83876e-41
-6.03218e-40
-8.07983e-40
1.76952e-37
4.99759e-36
7.94927e-35
6.50513e-34
-7.77018e-33
-3.59197e-31
-6.64348e-30
-5.98615e-29
1.6553e-28
1.55113e-26
3.28761e-25
2.72277e-24
-6.23109e-24
-6.02478e-22
-8.25144e-21
-4.54555e-20
4.88463e-19
1.22057e-17
8.26983e-17
-2.12239e-16
-9.10057e-15
-6.02703e-14
2.4253e-13
5.33079e-12
1.56274e-11
-1.35091e-10
-7.08673e-10
3.25616e-09
4.24334e-09
-1.03262e-07
5.96877e-07
8.59525e-09
-3.36293e-08
-2.37599e-08
-1.25738e-10
8.74377e-48
-8.25511e-49
-3.41832e-48
1.77031e-47
1.31732e-45
-6.98196e-45
0.000277484
0.982244
1.00991
1.00371
1.00638
1.01397
1.00125
1.00492
0.999713
1.00021
0.999714
0.999455
0.999924
0.999743
1.00001
0.999978
1.00002
1.00003
1
1.00001
1
1
1
0.999999
1
1
1
1
1
1
1
1
1
1
1
1
1
1
1
1
1
1
1
1
1
1
1
1
1
1
1
1
1
1
1
1
1
1
1
1
1
1
1
1
1
1
1
1
1
1
1
1
1
1
1
1
1
1
1
1
1
1
1
1
1
1
1
1
1
1
1
1
1
1
1
1
1
1
1
1
1
1
1
1
1
1
1
1
1
1
1
1
1
1
1
1
1
1
1
1
1
1
1
1
1
1
1
1
1
1
1
1
1
1
1
1
1
1
1
1
1
1
1
1
1
1
1
1
1
1
1
1
1
1
1
1
1
1
1
1
1
1
1
1
1
1
1
1
1
1
1
1
1
1
1
1
1
1
1
1
1
1
1
1
1
1
1
1
1
1
1
-1.67927e-44
-1.113e-05
-1.78254e-10
-4.22684e-48
1.99715e-13
-1.09415e-11
-6.63775e-09
4.50048e-09
1.06011e-06
8.18197e-08
-4.62438e-08
-3.16382e-08
5.93218e-09
7.48107e-09
1.06555e-08
1.03049e-13
1.17023e-13
-3.24638e-10
-4.5862e-10
2.17769e-51
-6.09679e-11
-4.66697e-11
1.00049e-13
3.42241e-12
5.40112e-13
-4.41886e-15
-7.56984e-15
-8.28939e-16
-1.10986e-17
7.34047e-18
8.8321e-19
3.43746e-20
-2.63897e-21
-4.82267e-22
-3.61239e-23
-6.85671e-25
1.33515e-25
1.62272e-26
9.20988e-28
2.00187e-29
-2.2525e-30
-2.84147e-31
-1.81631e-32
-4.83511e-34
1.7821e-35
3.40412e-36
2.23432e-37
8.29064e-39
5.49332e-41
-2.10514e-41
-1.81387e-42
-8.85979e-44
-2.73748e-45
1.73848e-47
7.70136e-48
5.30471e-49
2.84535e-50
-1.66584e-05
-2.49419e-05
1.80865e-45
3.92584e-47
-1.29012e-48
-6.0864e-48
1.20012e-46
2.34121e-45
-2.57734e-45
-2.07839e-45
-1.63218e-44
7.95305e-50
-1.46781e-48
4.62549e-43
-2.34233e-41
-5.38185e-40
-6.07638e-39
2.43558e-38
7.23403e-37
-9.44536e-36
8.00459e-35
3.52815e-33
3.67821e-35
2.17092e-31
2.58029e-30
-3.81145e-29
1.17011e-28
-3.42225e-27
-4.74249e-26
3.14526e-25
3.52853e-24
8.73946e-24
9.44807e-23
3.41341e-22
3.93869e-21
-7.47063e-21
2.49872e-20
1.0616e-19
-4.26451e-19
8.74372e-19
-4.71602e-18
-4.84304e-18
3.18336e-17
1.65518e-16
6.01536e-16
1.92868e-15
5.0953e-15
1.16226e-14
2.26151e-14
3.9075e-14
6.00773e-14
8.47516e-14
1.01508e-13
1.2377e-13
-1.64263e-06
-7.79092e-06
1.05278e-06
0.999999
0.999999
1
1
1
1
1
1
0.999986
0.999991
0.999986
0.999971
1.00006
1.00004
1.00004
1.00009
0.99995
0.999984
0.99993
0.999931
0.99976
0.999752
0.999879
0.999702
1.00061
1.00023
1.00159
1.00125
1.00222
1.00245
1.00105
1.00252
0.99678
1.00024
0.985739
0.99249
0.966961
0.977128
0.938353
0.952583
0.899334
0.917847
0.848839
0.871725
0.789872
0.8154
0.725505
0.753291
0.655146
0.684566
0.58275
0.611887
0.510183
0.537634
0.438754
0.466316
0.370982
0.396057
0.309822
0.332617
0.254401
0.274655
0.206726
0.223997
0.166061
0.180475
0.130849
0.14318
0.102565
0.112507
0.0789054
0.0868709
0.0605687
0.066819
0.04585
0.0506373
0.0344644
0.0382927
0.0254888
0.0283798
0.018635
0.0208454
0.0134224
0.0150789
0.00970127
0.0108941
0.00690982
0.00778046
0.00483176
0.00547476
0.00340294
0.00385039
0.00237361
0.00269174
0.0016438
0.00186768
0.0011238
0.00128269
0.000756433
0.000866424
0.000516289
0.000588264
0.000348303
0.000399157
0.000230177
0.000264793
0.000153982
0.00017686
0.000101229
0.000116219
6.68416e-05
7.70521e-05
4.34316e-05
5.0081e-05
2.80135e-05
3.24243e-05
1.78392e-05
2.07525e-05
1.15416e-05
1.33643e-05
7.34554e-06
8.53036e-06
4.60547e-06
5.37412e-06
2.9307e-06
3.40977e-06
1.84425e-06
2.14914e-06
1.15595e-06
1.34773e-06
7.15034e-07
8.35678e-07
4.44334e-07
5.20302e-07
2.74087e-07
3.20649e-07
1.68494e-07
1.97698e-07
1.02086e-07
1.20113e-07
6.3067e-08
7.39902e-08
3.81701e-08
4.46935e-08
2.32065e-08
2.73342e-08
1.39153e-08
1.63602e-08
8.28149e-09
9.77698e-09
4.89209e-09
5.79202e-09
2.92559e-09
3.45472e-09
1.74571e-09
2.05748e-09
1.01421e-09
1.20371e-09
6.01632e-10
7.12208e-10
3.48092e-10
4.13066e-10
2.06397e-10
2.44427e-10
1.19811e-10
1.41654e-10
7.02394e-11
8.32956e-11
4.04986e-11
4.80148e-11
2.29048e-11
2.72507e-11
1.31307e-11
1.5622e-11
7.54166e-12
8.97584e-12
4.28984e-12
5.10578e-12
2.40106e-12
2.87742e-12
1.36871e-12
1.63367e-12
7.95443e-13
9.47043e-13
4.69001e-13
5.55048e-13
3.09826e-05
-1.13499e-05
8.90327e-14
-0.00459305
-1.64583e-10
-6.43813e-10
-0.000867374
7.78282e-05
1.31944e-13
6.88229e-52
0.572277
2.47921e-51
1.17812e-46
0.872928
2.19694e-13
4.16419e-09
1.22196e-09
6.52406e-07
-7.62101e-08
1.55277e-47
1.50917e-06
-1.87006e-10
1.07294e-13
2.56433e-12
1.6771e-12
1.06554e-13
-1.42992e-14
-2.9041e-15
-1.68023e-16
1.17658e-17
2.91435e-18
2.17638e-19
-1.12797e-22
-1.3322e-21
-1.44057e-22
-6.94435e-24
1.70489e-25
5.2561e-26
4.27871e-27
1.70866e-28
-2.11295e-30
-8.9415e-31
-7.89081e-32
-3.44961e-33
-2.19325e-35
1.00758e-35
9.27283e-37
4.70224e-38
1.15454e-39
-4.20391e-41
-6.63522e-42
-4.31164e-43
-1.65844e-44
-2.97222e-46
2.06835e-47
2.25047e-48
1.30652e-49
9.94948e-15
1.63492e-50
1.23279e-13
0.0179633
-0.00337097
4.63065e-47
1.66835e-47
9.67815e-52
0.921152
2.85897e-42
1.91942e-42
-2.19251e-43
-3.16895e-41
-2.84943e-43
1.42984e-40
3.16187e-39
-2.55742e-38
2.28874e-38
1.26208e-36
2.23591e-35
-1.15453e-33
-4.83239e-33
1.17287e-32
-1.2308e-30
-4.34215e-31
1.13546e-28
-6.60708e-28
2.58535e-26
-2.05797e-26
-1.39984e-24
-5.1655e-24
-3.00784e-23
-1.94415e-22
-1.46923e-21
-3.83985e-21
9.59792e-21
-5.13262e-20
1.59743e-20
4.37725e-20
4.23128e-20
-8.50423e-18
8.46182e-18
7.77306e-17
3.31843e-16
1.07667e-15
3.21173e-15
7.85154e-15
1.68469e-14
3.01173e-14
4.80457e-14
7.21137e-14
9.60496e-14
0.000195342
1.77286e-40
2.91864e-13
0.0738136
0.000138883
1.21603e-13
1.01107e-13
7.1289e-14
4.60187e-14
2.65868e-14
1.35406e-14
5.91184e-15
2.19843e-15
6.80848e-16
1.85047e-16
3.42067e-17
-6.5351e-18
-5.26984e-18
1.02344e-18
-4.93681e-19
1.21329e-19
3.09666e-20
-9.12536e-21
4.61635e-21
4.1051e-22
1.11985e-22
1.00327e-23
4.1137e-24
4.10854e-25
-4.97935e-26
-4.97456e-27
1.68907e-28
-4.96634e-29
2.90342e-30
3.04891e-31
-2.42645e-33
3.97195e-33
1.07873e-49
2.05514e-48
2.50319e-47
-7.42778e-47
-1.17161e-44
-3.5454e-43
-6.26433e-42
-5.828e-41
5.51913e-40
3.50399e-38
8.10897e-37
1.05954e-35
2.94781e-35
-2.30397e-33
-6.6137e-32
-9.01733e-31
-5.26391e-30
1.09666e-28
3.55777e-27
5.25533e-26
3.25116e-25
-4.1555e-24
-1.25934e-22
-1.46259e-21
-4.73839e-21
1.57651e-19
2.85571e-18
1.86217e-17
-9.10573e-17
-2.7488e-15
-2.02347e-14
-1.12073e-07
2.6172e-10
1.14352e-13
8.57935e-14
5.69144e-14
3.5494e-14
1.97119e-14
9.14246e-15
3.70198e-15
1.22393e-15
3.75449e-16
8.64093e-17
7.80494e-18
-9.99536e-18
2.15628e-19
3.41296e-21
3.58286e-20
-5.97478e-20
9.85098e-21
-3.89259e-21
-1.75622e-21
-2.21724e-22
-3.59398e-23
-5.55643e-24
-1.69867e-24
-4.29837e-26
3.09372e-26
-6.45796e-28
1.29264e-28
1.12191e-30
-1.46735e-30
1.09612e-32
-4.59626e-33
-0.00678224
-0.00317566
-0.00995504
-1.43179e-33
2.61218e-35
2.07862e-36
1.17351e-38
-3.5017e-38
3.79006e-39
4.52321e-49
7.72364e-48
5.21321e-47
-1.68772e-45
-6.81449e-44
-1.59942e-42
-2.21689e-41
-6.46059e-41
5.45925e-39
1.83047e-37
3.21394e-36
2.66253e-35
-2.23053e-34
-1.39303e-32
-2.58508e-31
-2.69559e-30
3.72724e-30
6.79499e-28
1.47793e-26
1.53598e-25
4.10477e-26
-2.80367e-23
-4.6417e-22
-3.63057e-21
1.39132e-20
7.6962e-19
8.52131e-18
1.64904e-17
-6.38934e-16
-8.21812e-15
-2.82698e-14
4.06703e-13
4.3707e-12
6.15259e-51
0.646971
2.13805e-50
4.19781e-07
-1.02843e-07
4.74937e-51
3.71799e-14
1.63768e-12
7.05697e-12
2.17569e-50
1.26118e-49
1.23169e-34
-1.24117e-35
7.96509e-37
2.61093e-38
4.80646e-43
-5.60283e-39
-6.80117e-40
0.000456508
-8.19358e-08
1.66644e-13
8.49032e-35
1.00293
1.00828
1.01211
1.00307
1.00796
1.00022
1.00185
0.999626
0.999682
0.999807
0.999571
0.99998
0.999881
1.00002
1.00002
1.00001
1.00003
1
1.00001
0.999998
0.999997
0.999998
0.999996
0.999999
0.999998
0.999999
0.999998
0.999999
0.999998
0.999999
0.999998
0.999999
0.999998
0.999999
0.999998
0.999999
0.999998
0.999999
0.999998
0.999999
0.999998
0.999999
0.999998
0.999999
0.999998
0.999999
0.999998
0.999999
0.999998
0.999999
0.999998
0.999999
0.999998
0.999999
0.999998
0.999999
0.999998
0.999999
0.999998
0.999999
0.999998
0.999999
0.999998
0.999999
0.999998
0.999999
0.999998
0.999999
0.999998
0.999999
0.999998
0.999999
0.999998
0.999999
0.999998
0.999999
0.999998
0.999999
0.999998
0.999999
0.999998
0.999999
0.999998
0.999999
0.999998
0.999999
0.999998
0.999999
0.999998
0.999999
0.999998
0.999999
0.999998
0.999999
0.999998
0.999999
0.999998
0.999999
0.999998
0.999999
0.999998
0.999999
0.999998
0.999999
0.999998
0.999999
0.999998
0.999999
0.999998
0.999999
0.999998
0.999999
0.999998
0.999999
0.999998
0.999999
0.999998
0.999999
0.999998
0.999999
0.999998
0.999999
0.999998
0.999999
0.999998
0.999999
0.999998
0.999999
0.999998
0.999999
0.999998
0.999999
0.999998
0.999999
0.999998
0.999999
0.999998
0.999999
0.999998
0.999999
0.999998
0.999999
0.999998
0.999999
0.999998
0.999999
0.999998
0.999999
0.999998
0.999999
0.999998
0.999999
0.999998
0.999999
0.999998
0.999999
0.999998
0.999999
0.999998
0.999999
0.999998
0.999999
0.999998
0.999999
0.999998
0.999999
0.999998
0.999999
0.999998
0.999999
0.999998
0.999999
0.999998
0.999999
0.999998
0.999999
0.999998
0.999999
0.999998
0.999999
0.999998
0.999999
0.999998
0.999999
0.00112676
0.999997
3.88756e-51
0.113514
2.93228e-50
1.74174e-13
0.228572
7.02189e-09
-2.11069e-10
5.35098e-07
-9.39492e-08
2.52548e-46
8.61426e-11
-2.43861e-10
1.20962e-06
1.75268e-06
1.41167e-06
6.87664e-50
-1.75754e-11
1.65413e-12
2.43618e-08
3.07341e-07
-1.10342e-07
1.46601e-13
-1.28159e-15
-1.72918e-15
-1.94382e-16
-4.69118e-18
1.17713e-18
1.7169e-19
8.41595e-21
-2.50992e-22
-7.85855e-23
-6.94018e-24
-2.45313e-25
1.04008e-26
2.11245e-27
1.58e-28
5.16683e-30
-1.22722e-31
-3.63594e-32
-2.7001e-33
-1.08279e-34
-2.45379e-37
3.28122e-37
2.74714e-38
1.36513e-39
3.20054e-41
-1.56407e-42
-2.07511e-43
-1.25256e-44
-4.92717e-46
-8.01706e-48
-6.40951e-11
-5.94997e-11
1.65391e-13
-0.00734111
-2.15335e-48
-8.97918e-39
1.45479e-13
-3.67588e-43
-3.9735e-41
-0.000126849
3.9991e-49
-7.81574e-40
4.5371e-39
5.337e-39
-7.87493e-39
5.77597e-38
1.04038e-36
-1.88596e-35
4.28537e-35
5.17885e-35
1.31368e-34
1.84477e-49
1.69485e-49
5.36014e-33
-1.31961e-33
3.96283e-31
4.26231e-30
-6.66878e-29
1.09741e-28
-5.49141e-27
-7.79562e-26
5.30496e-25
6.23498e-24
1.51172e-23
1.67149e-22
5.99051e-22
7.38819e-21
-1.09214e-20
3.92083e-20
2.08202e-19
-7.73361e-19
1.50764e-18
-9.31419e-18
-5.08129e-18
6.05377e-17
3.05649e-16
1.0855e-15
3.43e-15
9.04717e-15
2.03723e-14
3.94134e-14
6.69957e-14
1.03067e-13
1.42768e-13
9.09852e-47
2.87841e-46
2.29199e-40
2.8847e-40
-9.28637e-40
0.999999
0.00246631
1
1
1
1
0.99999
0.999994
0.99998
0.999968
1.00004
1.00002
1.00005
1.00008
0.999985
1.00001
0.999939
0.999968
0.999717
0.999749
0.999806
0.999655
1.00045
1.00007
1.00135
1.001
1.00219
1.00227
1.0016
1.00274
0.998083
1.00113
0.988541
0.994575
0.971231
0.981406
0.944576
0.958338
0.907612
0.925914
0.859291
0.882344
0.802541
0.828311
0.740271
0.768331
0.66982
0.700467
0.597375
0.6272
0.523559
0.553487
0.451166
0.480178
0.383496
0.410105
0.321696
0.345962
0.264975
0.28615
0.216368
0.234569
0.173768
0.189548
0.137186
0.150348
0.108314
0.118629
0.0832933
0.092088
0.0638204
0.0704474
0.0484048
0.0536972
0.0363968
0.0405884
0.0269624
0.0301576
0.0198634
0.0222838
0.0142894
0.0161188
0.0103517
0.0116492
0.00738029
0.00836189
0.00516404
0.00586785
0.00366618
0.00414172
0.00255828
0.00291273
0.00176026
0.00200992
0.00121353
0.00138989
0.000819828
0.000944842
0.000556413
0.000636274
0.000377248
0.000433298
0.00025022
0.000289407
0.000166619
0.00019171
0.000109429
0.000126485
7.21726e-05
8.3668e-05
4.68411e-05
5.43859e-05
3.05551e-05
3.55022e-05
1.9471e-05
2.27718e-05
1.25906e-05
1.46249e-05
8.05003e-06
9.41615e-06
5.04151e-06
5.90335e-06
3.236e-06
3.75845e-06
2.0325e-06
2.38164e-06
1.25765e-06
1.47608e-06
7.8329e-07
9.20032e-07
4.89447e-07
5.76261e-07
3.00749e-07
3.54172e-07
1.86528e-07
2.19696e-07
1.12971e-07
1.33726e-07
6.96643e-08
8.1833e-08
4.19861e-08
4.95869e-08
2.53343e-08
2.99699e-08
1.52352e-08
1.80348e-08
9.18583e-09
1.08925e-08
5.42608e-09
6.43687e-09
3.2748e-09
3.88089e-09
1.9311e-09
2.30133e-09
1.12151e-09
1.33703e-09
6.75347e-10
7.99737e-10
3.8996e-10
4.65813e-10
2.2845e-10
2.71086e-10
1.3228e-10
1.57603e-10
7.71812e-11
9.22e-11
4.42088e-11
5.27625e-11
2.55838e-11
3.06484e-11
1.4389e-11
1.72766e-11
8.39193e-12
1.00214e-11
4.79861e-12
5.77569e-12
2.71198e-12
3.25876e-12
1.56384e-12
1.86944e-12
9.20815e-13
1.10923e-12
5.33229e-13
6.46815e-13
0.000126153
0.00029208
0.000347086
0.000322798
0.756643
-1.76607e-33
5.92151e-33
3.01991e-47
1.15263e-46
1.51473e-09
9.82434e-10
1.66293e-13
2.02039e-13
2.03148e-13
1.58296e-13
2.01362e-13
-7.3624e-48
3.27963e-47
3.6578e-42
-5.09546e-41
3.55946e-50
7.96501e-50
-2.45956e-48
4.83633e-13
4.58464e-13
-0.00272338
-0.00153445
-1.05293e-47
4.57253e-49
3.95612e-50
-6.30314e-45
3.90437e-45
2.95124e-45
2.07921e-13
-3.28955e-10
-1.48273e-10
1.4399e-26
5.88189e-27
-1.81355e-05
3.36793e-13
4.74954e-09
-7.78569e-23
-2.53587e-23
-3.9134e-09
8.86723e-09
-1.08032e-11
-1.29962e-12
5.2659e-21
8.4284e-22
1.90307e-13
1.36221e-18
5.18851e-19
1.90384e-12
1.15336e-12
2.5984e-14
-3.39323e-15
-6.68654e-16
-4.24318e-17
1.4104e-18
5.13368e-19
4.40591e-20
-3.72914e-23
-1.91651e-22
-2.29351e-23
-1.50066e-24
-1.37004e-26
6.19485e-27
6.11002e-28
3.16596e-29
4.22838e-31
-9.94413e-32
-1.06088e-32
-5.90383e-34
-1.42721e-35
7.17214e-37
1.00303e-37
6.741e-39
2.45034e-40
6.59307e-43
-6.6165e-43
-5.52371e-44
-2.54397e-45
-7.39335e-47
-1.67129e-10
1.44071e-49
1.79604e-13
-8.60147e-20
-3.97278e-22
-3.45567e-22
1.31854e-12
1.13863e-13
-1.59365e-16
-1.83541e-15
3.13387e-13
0.935175
-3.47447e-44
-3.80159e-44
-4.75357e-43
-0.00740284
1.08484e-08
0.969609
-2.173e-33
8.35283e-49
0.80381
7.50315e-43
-5.22299e-38
1.13319e-37
2.98433e-36
-5.89374e-33
-6.42739e-33
0.0569193
-6.30056e-33
0.202537
2.79444e-32
-1.87795e-30
-4.65563e-31
2.18164e-28
-1.04483e-27
4.06053e-26
-4.14931e-26
-2.40191e-24
-8.09593e-24
-4.9591e-23
7.08879e-22
-2.40909e-21
-7.83867e-21
2.07709e-20
-8.79321e-20
-3.32176e-20
2.60953e-19
-6.46593e-19
-1.38743e-17
1.83913e-17
1.4458e-16
5.99429e-16
1.91154e-15
5.63962e-15
1.39285e-14
2.90179e-14
5.17876e-14
8.14923e-14
1.22235e-13
4.81992e-09
-7.72136e-06
-2.00812e-05
-3.96969e-06
-6.15307e-45
7.04639e-05
3.38574e-06
0.266977
1.70356e-13
1.2184e-13
7.92423e-14
4.66543e-14
2.38353e-14
1.05143e-14
3.95656e-15
1.24172e-15
3.43268e-16
6.57197e-17
-7.4611e-18
-1.05491e-17
1.79347e-18
-9.01008e-19
2.39151e-19
4.86992e-20
-1.38137e-20
1.97913e-22
1.7089e-23
-4.44117e-47
-1.96378e-45
-4.75039e-44
-6.50752e-43
1.10969e-26
-2.62536e-42
1.62502e-40
5.44307e-39
9.17932e-38
9.12699e-37
-6.76793e-36
-4.48749e-34
-9.23317e-33
-1.04206e-31
-2.67513e-32
2.22617e-29
1.45271e-13
9.65319e-14
6.11949e-14
3.40892e-14
1.61846e-14
6.53918e-15
2.19029e-15
6.76521e-16
1.59974e-16
1.80266e-17
-1.66941e-17
-4.19471e-19
2.1838e-19
-5.33613e-21
-1.03672e-19
2.20953e-20
-8.25539e-21
-0.000567357
-0.00980064
-2.92948e-21
-5.96642e-23
-8.91716e-24
-2.90219e-24
-7.9968e-26
4.91125e-26