/*--------------------------------*- C++ -*----------------------------------*\
  =========                 |
  \\      /  F ield         | OpenFOAM: The Open Source CFD Toolbox
   \\    /   O peration     | Website:  https://openfoam.org
    \\  /    A nd           | Version:  7
     \\/     M anipulation  |
\*---------------------------------------------------------------------------*/
FoamFile
{
    version     2.0;
    format      ascii;
    class       volScalarField;
    location    "0.7";
    object      T;
}
// * * * * * * * * * * * * * * * * * * * * * * * * * * * * * * * * * * * * * //

dimensions      [0 0 0 1 0 0 0];

internalField   nonuniform List<scalar> 
46572
(
0
0
0
0
0
0
0
0
0
0
0
0
0
0
0
0
0
0
0
0
0
0
0
0
0
0
0
0
0
0
0
0
0
0
0
0
0
0
0
0
0
0
0
0
0
0
0
0
0
0
0
0
0
0
0
0
0
0
0
0
0
0
0
0
0
0
0
0
0
0
0
0
0
0
0
0
0
0
0
0
0
0
0
0
0
0
0
0
0
0
0
0
0
0
0
0
0
0
0
0
0
0
0
0
0
0
0
0
0
0
0
0
0
0
0
0
0
0
0
0
0
0
0
0
0
0
0
0
0
0
0
0
0
0
0
0
0
0
0
0
0
0
0
0
0
0
0
0
0
0
0
0
0
0
0
0
0
0
0
0
0
0
0
0
0
0
0
0
0
0
0
0
0
0
0
0
0
0
0
0
0
0
0
0
0
0
0
0
0
0
0
0
0
0
0
0
0
0
0
0
0
0
0
0
0
0
0
0
0
0
0
0
0
0
0
0
0
0
0
0
0
0
0
0
0
0
0
0
0
0
0
0
0
0
0
0
0
0
0
0
0
0
0
0
0
0
0
0
0
0
0
0
0
0
0
0
0
-4.27552e-153
-5.3444e-153
-1.26565e-151
5.7655e-151
-2.92648e-148
5.13919e-150
-4.09065e-135
7.96623e-137
-4.17181e-130
1.13612e-134
1.05354e-128
4.06468e-128
2.29012e-128
6.3235e-128
-2.18786e-128
-2.2582e-128
-2.44057e-125
7.62507e-125
-8.61101e-124
-5.99527e-124
-6.76165e-123
-1.76713e-123
-1.14242e-120
-1.35093e-120
-4.77606e-119
1.74955e-118
-1.12414e-117
3.45566e-118
-2.12505e-116
3.41749e-116
-1.2859e-114
-1.10896e-114
-1.39894e-114
-1.42508e-114
-9.83699e-115
-7.59489e-115
-2.34313e-114
1.5588e-114
-1.5788e-112
-1.69932e-112
-1.01965e-112
-1.06918e-112
-1.77722e-112
3.34219e-112
-6.98424e-112
-3.6955e-112
-7.25993e-112
-8.81666e-112
1.10898e-111
-2.106e-111
8.89545e-111
-2.18209e-110
1.57613e-109
1.91762e-109
2.16914e-109
1.07491e-108
6.29072e-111
7.55451e-109
-2.71145e-108
2.44907e-108
-8.55706e-107
-1.26968e-106
-1.52902e-107
-2.64127e-106
1.20289e-106
-5.11123e-106
1.80318e-106
-5.02307e-106
1.52068e-106
-1.35706e-105
9.93747e-105
-2.14776e-104
2.58188e-104
-1.21735e-104
-6.93399e-104
3.86122e-103
-4.34988e-103
4.23424e-103
-3.79319e-103
1.2758e-102
-2.75983e-102
8.11645e-102
-4.71285e-102
7.71967e-102
-2.0015e-101
3.48531e-101
-4.5164e-101
5.89624e-101
-7.31979e-101
9.18092e-101
-2.18075e-100
-5.41297e-101
-1.64e-100
-2.01354e-101
-1.62201e-100
1.23274e-100
-2.4441e-100
-4.15505e-102
-2.16571e-100
5.55949e-101
-2.75453e-100
3.03749e-100
-1.13965e-99
-5.3252e-100
-8.01648e-100
-1.95284e-100
-1.16647e-99
1.7311e-99
-2.66448e-99
1.65141e-99
-3.30279e-99
2.12044e-100
-3.72939e-99
2.65838e-99
-6.2825e-99
7.71378e-99
-1.87085e-98
-1.19899e-98
-1.94918e-98
1.36726e-98
-2.38553e-98
-4.21909e-99
-1.57701e-98
-1.12678e-98
-6.7979e-99
-3.08225e-98
2.10286e-98
-1.12694e-97
2.2417e-97
-1.68589e-97
1.03012e-96
5.38244e-97
2.06323e-96
1.22595e-96
1.35755e-96
1.35817e-96
9.10747e-97
1.31956e-96
-3.19317e-97
4.08934e-96
-1.73772e-96
3.59894e-96
-1.2285e-96
6.75617e-96
-1.48394e-95
4.56724e-95
-3.67938e-95
4.82447e-95
-5.43107e-95
8.79928e-95
-7.43173e-95
1.11531e-94
-1.12734e-94
2.19403e-94
-3.60198e-94
2.45115e-94
-1.81599e-93
1.85877e-93
-1.82221e-93
1.57671e-93
-1.79443e-93
1.50677e-93
-1.70995e-93
1.44805e-93
-4.91795e-93
3.28656e-93
-8.04419e-93
-1.62651e-93
-6.04329e-93
2.92089e-94
-7.58799e-93
8.8625e-93
-1.31674e-92
1.03743e-92
-1.63774e-92
6.09426e-93
-1.90803e-92
1.54148e-92
-2.81373e-92
4.22874e-92
-3.61854e-92
2.74048e-92
-6.28643e-92
5.06204e-92
-5.78749e-92
2.57039e-92
-6.36174e-92
-7.99815e-93
-5.3037e-92
3.55227e-95
-5.03114e-92
1.921e-92
-1.65858e-91
-4.16831e-92
-1.22249e-91
1.7751e-92
-1.88696e-91
2.92869e-91
-3.32571e-91
2.63818e-91
-3.85096e-91
9.50157e-92
-3.79815e-91
1.32749e-91
-4.05654e-91
3.31751e-91
-4.55769e-91
2.38771e-91
-5.1182e-91
4.26938e-91
-5.1944e-91
1.50973e-91
-4.79057e-91
-3.87729e-93
-3.98257e-91
3.10458e-92
-3.48356e-91
-1.4793e-92
-3.27611e-91
-1.47645e-92
-4.91624e-91
6.10846e-91
-8.34755e-91
6.06114e-92
-8.58946e-91
5.25806e-91
-7.86099e-91
4.35873e-91
-1.58701e-90
8.47062e-91
-2.2819e-90
-5.52232e-91
-1.73888e-90
-7.24542e-92
-1.76546e-90
9.83419e-91
-1.97896e-90
4.09724e-91
-2.77309e-90
1.78689e-90
-4.63306e-90
3.32712e-90
-5.67678e-90
6.43683e-90
-5.42762e-90
4.54718e-90
-5.83754e-90
6.16142e-90
-5.7628e-90
5.16633e-90
-8.21855e-90
5.23362e-90
-7.33746e-90
3.04054e-90
-1.37231e-89
6.07497e-90
-1.9478e-89
-4.69157e-90
-1.47704e-89
-5.72131e-91
-1.49238e-89
8.97628e-90
-1.88813e-89
7.86667e-90
-1.92856e-89
1.52185e-90
-1.74748e-89
4.66124e-90
-1.75448e-89
6.05799e-90
-2.43513e-89
-6.4689e-90
-1.88916e-89
-3.68299e-90
-1.6939e-89
-2.66616e-90
-2.13182e-89
-5.5517e-90
-1.64619e-89
-4.26851e-90
-1.34303e-89
-6.33832e-91
-2.0048e-89
-9.49763e-90
-1.41252e-89
-5.12872e-90
-1.21315e-89
1.49225e-90
-1.19746e-89
1.09509e-90
-1.08801e-89
-9.24097e-91
-8.78492e-90
-2.19757e-91
-7.97119e-90
5.0356e-91
-9.57775e-90
-4.74374e-90
-7.81829e-90
-6.40335e-91
-7.15725e-90
-8.21217e-91
-5.73751e-90
-6.47519e-91
-4.70418e-90
-5.11874e-91
1.76425e-90
1.40136e-90
2.28021e-88
7.79286e-89
6.72082e-87
1.52406e-87
-6.7369e-86
1.08589e-86
-1.29282e-83
1.34997e-84
-1.24033e-81
-2.46641e-82
-7.81262e-80
4.18322e-81
-7.93541e-79
-5.74084e-79
-8.88965e-78
1.26659e-78
-1.13769e-76
-1.05486e-76
2.1665e-76
6.98542e-77
-2.76601e-74
4.81771e-75
7.59329e-73
-9.92003e-73
-4.38744e-72
-2.42672e-71
-2.2256e-70
-2.80905e-70
-1.66083e-69
-6.73028e-70
-2.88941e-68
-2.46119e-07
-9.39778e-08
-2.93784e-09
-6.04123e-11
5.16802e-12
1.06941e-13
-4.1052e-16
-4.59709e-18
5.1761e-20
1.09202e-23
7.36847e-24
-2.32164e-25
2.49487e-27
-4.12034e-30
-1.58417e-31
6.1713e-34
2.92692e-36
-3.58792e-38
1.31508e-40
2.38555e-43
-4.49977e-45
2.57593e-47
-1.59523e-49
1.39082e-51
-1.4749e-53
1.35813e-55
-9.10118e-58
3.76208e-60
-8.07512e-63
2.11082e-65
-2.70702e-07
2.54838e-08
-2.85135e-08
-1.38469e-07
-4.43226e-09
6.42489e-07
5.49885e-07
-4.78502e-06
-1.99751e-05
-3.7295e-05
-6.44132e-06
0.000192603
0.000802069
0.00221251
0.00485256
0.00929032
0.0163301
0.0262334
0.0393356
0.0558638
0.0751394
0.0977542
0.121341
0.142932
0.165468
0.182577
0.194364
0.1986
0.197843
0.188247
0.171203
0.147557
0.122099
0.0917204
0.0608608
0.0305225
0.00326553
-0.022575
-0.0439823
-0.0581662
-0.070435
-0.0760876
-0.0788894
-0.0774146
-0.0705157
-0.0667357
-0.0604023
-0.0524459
-0.0458383
-0.038899
-0.0318122
-0.0256437
-0.0207042
-0.0167585
-0.0130921
-0.00986059
-0.00758422
-0.00564246
-0.00414324
-0.00303739
-0.00211912
-0.00155379
-0.00110538
-0.000767817
-0.000533137
-0.000371142
-0.00025854
-0.00017691
-0.000115349
-7.85824e-05
-5.17826e-05
-3.35439e-05
-2.175e-05
-1.42622e-05
-9.08091e-06
-5.76083e-06
-3.57665e-06
-2.30103e-06
-1.44005e-06
-9.2561e-07
-4.47083e-07
-2.90993e-07
-4.45661e-11
2.66975e-10
-8.62476e-11
3.51692e-10
3.24186e-10
-6.74569e-10
9.34875e-10
3.15362e-10
-6.93162e-09
9.28605e-09
2.00177e-08
1.993e-08
-2.78949e-10
1.62545e-10
-1.37723e-10
-5.23407e-12
-4.35363e-11
-6.30945e-11
1.57972e-10
-2.05498e-10
1.12052e-10
-8.46183e-11
5.19868e-10
1.20863e-11
5.53387e-10
-3.47944e-10
-5.31154e-10
6.60032e-10
3.83372e-10
-1.85226e-10
3.86113e-10
-7.08974e-10
-4.42209e-10
-7.5214e-10
-6.54253e-10
-8.37256e-11
-5.51372e-10
4.65025e-10
4.34997e-10
-4.88699e-10
9.34845e-11
-2.89403e-10
-4.07472e-10
-2.78396e-10
-5.85448e-10
1.12558e-09
4.25529e-11
1.07504e-09
2.37719e-09
-2.03202e-10
3.53323e-09
-1.92917e-09
-3.80989e-09
-1.09061e-08
-8.55456e-09
-1.5945e-08
-1.18619e-08
-2.29321e-09
-1.40749e-08
1.14665e-08
-4.23655e-09
2.07991e-08
5.6529e-09
2.89937e-08
1.8104e-08
1.16112e-08
1.27827e-08
-4.04386e-08
-3.19171e-08
-1.08151e-07
-1.09796e-07
-1.56763e-07
-2.00639e-07
-1.1064e-07
-2.72578e-07
8.92718e-08
-2.55051e-07
4.51542e-07
-1.26023e-07
8.56527e-07
1.3256e-07
1.09026e-06
3.18382e-07
7.47871e-07
6.95104e-08
-7.37233e-07
-1.11969e-06
-3.75416e-06
-4.00505e-06
-8.21946e-06
-9.37603e-06
-1.29341e-05
-1.75745e-05
-1.50723e-05
-2.84395e-05
-8.35699e-06
-3.9857e-05
1.67873e-05
-4.81917e-05
7.4854e-05
-4.8334e-05
0.000187757
-2.79876e-05
0.000381034
3.11113e-05
0.00070276
0.000136968
0.00119373
0.000340147
0.00188713
0.000653508
0.002865
0.00110201
0.00414807
0.00176759
0.00592543
0.00261811
0.00810758
0.00384407
0.0108364
0.00528699
0.0142752
0.00716889
0.0182338
0.00943252
0.0228978
0.0120144
0.0285979
0.0152016
0.0348497
0.0190061
0.0417627
0.0229571
0.0497405
0.0276254
0.0580953
0.0326232
0.0673542
0.0377394
0.0765136
0.0434279
0.0871555
0.0489884
0.0972415
0.0553581
0.107368
0.0608078
0.118854
0.0672347
0.12834
0.0726686
0.137542
0.0771341
0.147954
0.0823422
0.156349
0.0871673
0.16295
0.0895815
0.17051
0.0927777
0.174317
0.0933897
0.177045
0.0921722
0.179922
0.0913226
0.177715
0.0881209
0.177567
0.0845122
0.175508
0.0820412
0.170158
0.0763108
0.164019
0.0684062
0.155081
0.0597574
0.146596
0.0506883
0.135618
0.0413227
0.123271
0.029318
0.110948
0.0190874
0.0969829
0.00649743
0.0827581
-0.00612594
0.0685075
-0.0176352
0.0538776
-0.0297648
0.0404233
-0.0413042
0.0259744
-0.0515454
0.0119744
-0.061928
-0.000835251
-0.0719957
-0.0128202
-0.0805688
-0.0234089
-0.0892238
-0.0340692
-0.0957454
-0.0421803
-0.101783
-0.0526614
-0.106365
-0.0579065
-0.110176
-0.0630676
-0.112354
-0.0690043
-0.114504
-0.0732875
-0.115504
-0.0743748
-0.114921
-0.0776243
-0.113937
-0.0785679
-0.112082
-0.0783571
-0.109589
-0.0766021
-0.106073
-0.0755329
-0.102736
-0.0739286
-0.0986173
-0.0707665
-0.0937811
-0.0696981
-0.0894199
-0.0650053
-0.0839022
-0.0609225
-0.0782696
-0.0583115
-0.0736231
-0.0549963
-0.0688007
-0.0504444
-0.0633253
-0.0476666
-0.0587467
-0.0432206
-0.0535226
-0.0392806
-0.048572
-0.0364904
-0.0443462
-0.0323212
-0.039708
-0.0295356
-0.036067
-0.0271005
-0.0328815
-0.0244207
-0.0295392
-0.0219343
-0.0264068
-0.0193685
-0.0234065
-0.017335
-0.0209
-0.0154948
-0.018549
-0.013432
-0.0162316
-0.012097
-0.0143568
-0.0104117
-0.0124733
-0.00902295
-0.010822
-0.00800993
-0.00953601
-0.00695222
-0.00828231
-0.00593001
-0.00709942
-0.00519205
-0.00616885
-0.00447409
-0.00531315
-0.00385351
-0.00456325
-0.00327428
-0.00389519
-0.00280904
-0.00333898
-0.00240543
-0.00284971
-0.00202448
-0.00240652
-0.00174784
-0.00205841
-0.00145437
-0.00172392
-0.00121719
-0.00144456
-0.00103753
-0.00122519
-0.000877006
-0.00103422
-0.000723772
-0.000859061
-0.000612322
-0.000722786
-0.000509875
-0.000602145
-0.000424433
-0.000500563
-0.000350058
-0.000413765
-0.000290296
-0.000343902
-0.00024073
-0.000284347
-0.000195903
-0.00023168
-0.000159232
-0.000188336
-0.000131894
-0.000155951
-0.000108635
-0.000128447
-8.99353e-05
-0.000106208
-7.39772e-05
-8.72413e-05
-5.93836e-05
-7.04576e-05
-4.91073e-05
-5.77936e-05
-3.93158e-05
-4.64173e-05
-3.14615e-05
-3.73095e-05
-2.57044e-05
-3.03103e-05
-2.02737e-05
-2.40347e-05
-1.6443e-05
-1.94861e-05
-1.34112e-05
-1.58736e-05
-1.07782e-05
-1.27747e-05
-8.66355e-06
-1.02564e-05
-6.89994e-06
-8.19608e-06
-5.54173e-06
-6.58367e-06
-4.4485e-06
-5.26442e-06
-3.49351e-06
-4.15618e-06
-2.82307e-06
-3.34095e-06
-2.22889e-06
-2.64652e-06
-1.77578e-06
-2.10255e-06
-1.43152e-06
-1.67968e-06
-1.1222e-06
-1.3111e-06
-8.49386e-07
-1.00682e-06
-6.70144e-07
-8.14066e-07
-6.10467e-07
-4.21264e-07
-6.80664e-07
-4.4855e-24
1.20658e-22
8.02632e-20
2.0881e-17
1.73127e-15
-4.20576e-15
1.47407e-13
3.82064e-11
2.4207e-09
2.12802e-09
3.21148e-08
3.01767e-08
3.876e-09
0
0
0
-3.90755e-39
-1.04895e-31
3.77516e-29
2.73231e-27
3.46365e-26
-2.68626e-25
-3.63585e-26
-1.91109e-24
-1.13972e-23
-1.48655e-23
1.88189e-23
-2.46877e-24
9.04777e-23
5.68977e-23
-1.26957e-23
-1.55329e-23
-1.88087e-23
-3.15802e-23
-6.24276e-23
-7.44362e-23
-7.91035e-23
-7.73247e-23
-6.49435e-23
-1.85821e-23
-2.65609e-23
-4.87839e-23
-4.70939e-23
-9.3806e-23
-3.42238e-23
5.06446e-23
1.97728e-22
2.75469e-22
2.92675e-22
1.87514e-22
1.59229e-22
8.32409e-23
4.45558e-23
-2.61857e-24
-2.00472e-23
-4.58025e-23
-5.23514e-23
-3.33694e-23
-3.02884e-23
-1.8208e-23
-1.47155e-23
-9.64481e-24
-5.39856e-24
-2.2067e-24
-2.13522e-25
7.14991e-25
1.13772e-24
1.03702e-24
9.01132e-25
7.94144e-25
5.06202e-25
4.03989e-25
2.8623e-25
1.41512e-25
9.06879e-26
5.3529e-26
3.23684e-26
1.86412e-26
1.22119e-26
9.2786e-27
7.07384e-27
7.45041e-27
3.43402e-27
2.27007e-27
7.19287e-28
7.37249e-28
9.8762e-28
8.47033e-28
1.022e-27
1.2467e-27
1.08037e-27
1.19917e-27
1.13323e-27
9.37002e-28
4.95681e-28
4.84601e-28
3.46496e-28
2.2403e-28
1.84401e-28
9.64565e-29
8.84677e-29
7.1816e-29
3.36328e-29
2.38476e-29
6.72132e-30
6.20812e-30
3.97297e-30
3.25704e-30
2.10432e-30
9.81629e-32
3.43017e-30
1.35939e-27
-6.58828e-25
-3.53233e-68
4.85877e-10
3.08753e-10
2.99458e-08
1.63251e-08
-5.06442e-09
-8.01228e-11
-7.7697e-12
-9.29468e-13
-5.86194e-15
9.2821e-17
-3.10519e-19
-1.39642e-21
-5.83207e-23
8.75355e-25
6.49639e-27
-2.41984e-28
2.30499e-30
-1.57884e-34
-5.15701e-35
8.11998e-38
2.3001e-39
-2.34172e-41
1.17826e-43
-4.2403e-46
1.17261e-48
-2.26098e-53
-2.24907e-54
-2.98354e-55
4.97082e-57
-4.93418e-59
2.55505e-61
-8.28239e-64
4.55835e-11
8.24746e-67
1.37755e-08
-8.12284e-08
-1.28642e-07
2.83956e-07
8.93769e-07
-1.08389e-06
-1.11298e-05
-2.99473e-05
-3.34146e-05
5.93614e-05
0.000422455
0.00136489
0.00335123
0.00683537
0.0125489
0.0208299
0.032269
0.0476493
0.065181
0.0862955
0.108543
0.131294
0.154265
0.172844
0.186858
0.198894
0.197668
0.191607
0.180438
0.159949
0.136046
0.10724
0.0762297
0.0453268
0.0163265
-0.00996883
-0.032299
-0.0496884
-0.0656228
-0.0712805
-0.0745718
-0.0772222
-0.0734761
-0.069324
-0.0640463
-0.0553617
-0.0500398
-0.0415317
-0.0342902
-0.0291872
-0.0231329
-0.0186723
-0.0145371
-0.0110776
-0.00871652
-0.00636657
-0.00471459
-0.00350156
-0.00252314
-0.00181816
-0.00132145
-0.000904577
-0.00065436
-0.000445615
-0.000309981
-0.000210275
-0.000139878
-9.50257e-05
-6.25905e-05
-4.08597e-05
-2.75021e-05
-1.74704e-05
-1.11298e-05
-7.14507e-06
-4.45562e-06
-2.87026e-06
-1.78178e-06
-1.14131e-06
-8.0246e-07
-1.99881e-10
-1.99541e-10
1.96685e-11
-3.01631e-10
2.94708e-10
-1.18167e-09
1.45233e-10
2.89191e-09
-2.65515e-09
-5.00609e-09
1.21659e-08
-9.25096e-11
3.50318e-11
-4.65936e-11
-1.83584e-11
9.97009e-12
-3.89244e-11
-1.75262e-10
2.832e-10
-2.08111e-10
-8.03393e-18
9.01652e-11
-3.18888e-21
-1.45083e-18
-2.41152e-16
-6.84026e-15
9.42645e-14
-3.62435e-12
-3.8686e-10
-9.42961e-09
1.12466e-19
0
0
6.98519e-45
-8.2361e-35
1.89766e-30
-5.45143e-28
1.85829e-26
8.68212e-26
-8.54095e-26
-2.92733e-25
8.54251e-24
6.98586e-24
-3.23711e-23
-5.02973e-23
-5.13163e-23
-1.38889e-22
-4.1193e-23
-1.61774e-24
-3.55607e-23
-4.74094e-23
-5.43594e-23
-8.93751e-23
-8.9528e-23
-1.24808e-22
-7.45237e-23
-4.2568e-23
-5.06118e-23
-1.20656e-24
-8.84667e-23
-1.28773e-22
-2.9788e-23
-2.61189e-23
1.4084e-22
2.36121e-22
2.56232e-22
2.87224e-22
2.03895e-22
1.53947e-22
6.01815e-23
2.21943e-23
-2.44495e-23
-4.28548e-23
-4.83872e-23
-5.60789e-23
-3.92817e-23
-2.81596e-23
-1.70768e-23
-1.24227e-23
-7.80576e-24
-3.85118e-24
-1.23562e-24
7.00563e-25
8.04987e-25
1.39391e-24
9.27484e-25
9.1349e-25
7.44208e-25
4.99048e-25
3.36408e-25
2.37751e-25
1.09414e-25
7.03714e-26
4.06236e-26
2.15061e-26
1.70441e-26
9.90327e-27
7.10962e-27
5.48828e-27
5.06166e-27
6.99315e-28
2.04976e-27
3.52478e-28
2.01423e-28
3.73585e-28
5.73562e-28
1.27637e-27
8.52517e-28
1.08243e-27
1.10995e-27
8.94495e-28
9.74228e-28
4.94509e-28
3.36615e-28
3.53729e-28
2.13322e-28
1.62343e-28
1.05988e-28
7.66951e-29
6.74156e-29
3.37212e-29
1.8956e-29
6.96515e-30
4.07102e-30
3.62134e-30
2.18476e-30
1.06826e-31
-1.01743e-31
-3.24079e-29
7.38833e-26
-1.52244e-67
0
-5.8429e-15
1.91801e-16
-5.77398e-19
4.7751e-22
-1.18359e-22
2.29439e-24
5.03889e-27
-4.25092e-28
4.47399e-30
-2.93168e-34
-9.42575e-35
1.62084e-37
4.23801e-39
-3.96554e-41
2.11981e-43
-7.55206e-46
2.11742e-48
-7.49075e-52
1.14314e-53
-7.06261e-55
1.04401e-56
-9.27866e-59
4.76852e-61
-1.63434e-63
2.18965e-66
-5.17635e-08
-1.50236e-07
7.08277e-08
8.54319e-07
4.68934e-07
-6.34519e-06
-2.68809e-05
-5.8909e-05
-7.08183e-05
2.34321e-05
0.000403432
0.00133766
0.00309093
0.00614808
0.0109355
0.0174956
0.0265478
0.0368454
0.049733
0.0632338
0.0760191
0.0886113
0.0984303
0.103874
0.107856
0.100361
0.0908439
0.0766253
0.0541541
0.0319466
0.0069389
-0.0197226
-0.0432198
-0.0669229
-0.086671
-0.102544
-0.113199
-0.120459
-0.121396
-0.11862
-0.113628
-0.105212
-0.0949535
-0.0854504
-0.0736022
-0.0641106
-0.0533726
-0.0437463
-0.0363229
-0.0287084
-0.0231125
-0.0180313
-0.0137418
-0.0106685
-0.00785922
-0.00578294
-0.00428072
-0.00309046
-0.00221105
-0.00160131
-0.00110609
-0.000788653
-0.000537127
-0.000374995
-0.000255154
-0.000170422
-0.000114987
-7.59832e-05
-4.96764e-05
-3.31626e-05
-2.10933e-05
-1.35324e-05
-8.69329e-06
-5.44037e-06
-3.48259e-06
-2.17783e-06
-1.38847e-06
-9.36177e-07
2.74328e-10
-1.01546e-10
5.4808e-10
8.05116e-11
-4.35436e-10
3.18723e-09
-1.37308e-09
-3.13815e-09
3.27461e-11
-5.36969e-11
-1.83682e-11
-3.44586e-11
-4.5452e-11
-5.5052e-11
1.04739e-10
-1.82388e-10
5.56971e-11
-3.28655e-11
-2.91273e-11
3.76845e-15
1.54921e-14
-9.10504e-14
5.54981e-11
4.46481e-09
0
8.39402e-45
8.78874e-37
3.11356e-30
-3.3029e-28
-6.5331e-26
-3.48453e-25
1.47196e-24
-4.67029e-25
4.96504e-24
3.74502e-23
2.48279e-23
-6.51518e-23
2.71671e-23
-2.39047e-22
2.51733e-23
9.89227e-23
8.60556e-23
9.35205e-23
6.60709e-23
1.12319e-22
7.034e-23
-3.70999e-23
-8.51219e-23
-1.02385e-22
-1.45276e-22
-1.16797e-23
-1.01889e-22
-2.56029e-22
-1.99178e-22
-5.34054e-22
-5.0948e-22
-4.63835e-22
-2.92196e-22
-2.69748e-23
2.28525e-23
1.14718e-22
9.37067e-23
1.35511e-22
1.04357e-22
1.08605e-22
7.55031e-23
2.27282e-23
2.79249e-23
1.00286e-23
6.88049e-25
-2.79766e-24
-5.88818e-24
-5.51397e-24
-4.25078e-24
-2.57602e-24
-2.65215e-24
-8.58619e-25
-9.25337e-25
-2.92819e-25
-1.85422e-26
-3.94353e-26
-5.3967e-26
1.1239e-25
4.85833e-26
4.25115e-26
2.54507e-26
1.10548e-26
8.22057e-27
2.03259e-27
-6.50559e-28
-2.01101e-28
8.96261e-27
7.60416e-27
5.3042e-27
5.59145e-28
1.89311e-28
-1.28826e-27
-2.18118e-27
-1.92988e-27
-2.32682e-27
-1.33912e-27
-8.0336e-28
-7.92406e-28
-2.62515e-28
-6.32666e-28
-4.52411e-28
-1.67244e-28
-1.95291e-28
-1.13931e-28
-9.81503e-29
-7.87784e-29
-2.15688e-29
-3.6585e-29
-2.72037e-29
-1.03649e-29
-1.30547e-29
-3.50689e-30
-5.10098e-30
-5.30337e-30
2.96954e-30
1.56269e-29
-2.8558e-26
7.03442e-20
-1.39932e-23
1.08933e-23
-4.46253e-25
5.06078e-27
-1.26242e-29
-2.74153e-31
1.01992e-33
5.63006e-36
-6.80842e-38
2.36049e-40
2.93523e-43
-7.10074e-45
4.39111e-47
-3.04266e-49
2.59654e-51
-2.78684e-53
2.48484e-55
-1.6135e-57
6.81682e-60
-1.51417e-62
4.93011e-65
-1.04266e-08
-1.14978e-07
-1.13758e-07
4.14969e-07
1.03835e-06
-1.65272e-06
-1.46526e-05
-4.22098e-05
-7.23192e-05
-4.41812e-05
0.000160833
0.000772108
0.00210884
0.00445948
0.00841444
0.0140232
0.0217637
0.0316928
0.0429327
0.0568163
0.0701378
0.0821645
0.0947289
0.102477
0.106223
0.104585
0.0979871
0.0851929
0.0672226
0.0432586
0.020713
-0.00492953
-0.0313445
-0.0556036
-0.0773338
-0.0951547
-0.108402
-0.117212
-0.121891
-0.120845
-0.116219
-0.110248
-0.0991663
-0.09036
-0.0796555
-0.0686552
-0.0587191
-0.0488826
-0.0398713
-0.0321551
-0.0257826
-0.0206382
-0.0159529
-0.0121155
-0.00924319
-0.00682556
-0.00500674
-0.00368132
-0.00259085
-0.00188616
-0.00133799
-0.000933143
-0.000647507
-0.000448608
-0.000312626
-0.000212214
-0.00013966
-9.4636e-05
-6.23413e-05
-4.06679e-05
-2.62728e-05
-1.71744e-05
-1.0942e-05
-6.95951e-06
-4.34129e-06
-2.78404e-06
-1.74863e-06
-1.11986e-06
-1.39398e-11
-1.60136e-10
-2.88939e-10
-1.228e-12
-1.27022e-09
2.99459e-10
1.24771e-09
-5.88224e-09
-2.09223e-09
-1.05887e-10
-1.43791e-11
-3.25365e-11
-7.95407e-13
-8.75955e-11
-1.01841e-10
8.64042e-11
-8.46112e-11
-3.77722e-21
-2.44669e-18
-4.68977e-16
-1.95874e-14
1.9581e-13
-5.21815e-12
-6.48569e-10
-2.40613e-08
0
7.80728e-42
5.8178e-33
-3.97052e-30
1.24245e-26
-1.3189e-26
-2.40419e-25
-7.03002e-25
7.75618e-25
-3.79417e-23
-6.49011e-23
3.49855e-23
5.48746e-23
6.94766e-23
3.17245e-22
7.03338e-23
7.19624e-23
1.34369e-22
9.60026e-23
8.51281e-23
1.02741e-22
3.94615e-23
2.35554e-24
-1.13365e-22
-1.67245e-22
-2.21334e-23
-5.98376e-23
-9.07787e-23
-1.0736e-22
-4.06863e-22
-4.79249e-22
-4.41525e-22
-3.36165e-22
-1.52534e-22
-7.96938e-23
2.46356e-23
4.98274e-23
1.41332e-22
8.4124e-23
1.11637e-22
6.97115e-23
4.05651e-23
3.95876e-23
1.25269e-23
3.20776e-24
-8.41256e-25
-5.04877e-24
-5.7187e-24
-4.96108e-24
-3.5491e-24
-2.29828e-24
-1.12986e-24
-8.0713e-25
-8.15897e-25
-1.78464e-27
-1.89743e-25
1.57273e-27
1.06107e-25
6.56377e-26
4.90345e-26
4.10061e-26
2.33093e-26
1.00456e-26
1.60253e-27
-3.97141e-28
-2.30008e-27
8.89997e-27
9.16533e-27
3.52989e-27
4.05395e-27
1.87161e-27
1.4819e-27
-1.13633e-27
-2.10948e-27
-1.4992e-27
-1.29973e-27
-8.54483e-28
-7.68332e-28
-4.62765e-28
-5.66122e-28
-3.58801e-28
-2.20602e-28
-2.22314e-28
-9.11187e-29
-1.09563e-28
-7.17728e-29
-4.22914e-29
-3.37362e-29
-2.04768e-29
-1.02159e-29
-1.03967e-29
-2.34812e-30
-4.11084e-30
-3.80674e-30
-4.4622e-31
1.88277e-30
1.04575e-27
-3.14902e-11
-1.33019e-15
1.81626e-13
1.19585e-11
-1.83224e-12
5.61626e-11
1.84605e-08
-1.5543e-10
9.98791e-11
1.14406e-22
3.96334e-17
0
0
0
0
0
0
0
0
0
0
0
0
0
0
0
0
0
0
0
0
0
0
0
0
0
0
0
0
0
0
0
0
0
0
0
0
0
0
0
0
0
0
0
0
0
0
0
0
0
0
0
0
0
0
0
0
0
0
0
0
0
0
0
0
0
0
0
0
0
0
0
0
0
0
0
0
0
0
0
0
0
0
0
0
0
0
0
0
0
0
0
0
0
0
0
0
0
0
0
0
0
0
0
0
0
0
0
0
0
0
0
0
0
0
0
0
0
0
0
0
0
0
0
0
0
0
0
0
0
0
0
0
0
0
0
0
0
0
0
0
0
0
0
0
0
0
0
0
0
0
0
0
0
0
0
0
0
0
0
0
0
0
0
0
0
0
0
0
0
0
0
0
0
0
0
0
0
0
0
0
0
0
0
0
0
0
0
0
0
0
0
0
0
0
0
0
0
1.36468e-11
0
0
0
0
0
0
0
0
0
0
0
0
0
0
0
0
0
0
0
0
0
0
0
0
0
0
0
0
0
0
0
0
0
0
0
0
0
0
0
0
0
0
0
0
0
0
0
0
0
0
0
0
0
0
0
0
-1.42975e-150
0
3.0952e-139
3.89826e-139
2.7545e-138
-1.20424e-137
-2.54159e-133
-5.34912e-136
-5.34418e-128
-5.76954e-132
2.01963e-126
4.19066e-126
1.32e-126
9.78094e-126
-2.08613e-124
1.07825e-125
-3.2167e-123
7.28526e-123
-1.46857e-121
-1.30063e-121
-5.98049e-121
2.84725e-120
-1.8349e-118
2.92781e-118
-5.27464e-116
-6.25279e-116
-7.08916e-115
1.69065e-114
-1.35903e-113
-1.2935e-113
-9.5859e-113
-8.89051e-113
-6.56765e-113
-4.41632e-113
-1.68818e-112
4.71541e-112
-7.48195e-112
-3.83669e-112
-7.08343e-111
-6.62514e-111
-6.01829e-111
-3.3478e-111
-8.43258e-110
-6.74202e-110
-1.10812e-109
-1.1542e-109
-6.27439e-110
-1.12185e-109
6.953e-109
-1.42246e-108
2.69639e-108
9.32524e-109
6.90686e-108
6.52914e-108
2.37579e-107
1.0138e-106
8.51421e-108
1.47183e-106
-2.84682e-106
8.8876e-106
-5.51607e-105
-6.27888e-105
2.94075e-105
-3.32766e-104
2.90295e-104
-1.00772e-103
3.06825e-104
-9.30288e-104
5.34859e-104
-5.57108e-103
1.89319e-102
-5.06032e-102
2.64092e-102
-1.74324e-102
-1.53778e-102
3.10207e-101
-2.57156e-101
9.45688e-101
-7.14355e-101
1.73674e-100
-3.58787e-100
4.19656e-100
-4.17767e-100
6.19964e-100
-2.19243e-99
4.9957e-99
-4.19592e-99
3.15121e-99
-6.39257e-99
2.85977e-100
-8.60863e-99
2.36336e-100
-7.51265e-99
2.90782e-99
-1.25701e-98
8.42788e-99
-1.28874e-98
1.277e-98
-1.49925e-98
1.71217e-98
-2.73329e-98
2.7417e-99
-4.21597e-98
-8.29877e-99
-4.00548e-98
1.173e-98
-1.37868e-97
1.39582e-98
-2.16903e-97
-9.74909e-99
-2.06e-97
1.07553e-97
-3.73182e-97
5.33754e-97
-7.21932e-97
9.67485e-98
-6.77032e-97
2.69061e-97
-2.42052e-96
-9.38065e-97
-1.79063e-96
-9.91502e-97
-1.3476e-96
-9.85679e-97
1.03198e-96
-8.6242e-96
7.21106e-96
-6.22599e-96
2.13983e-95
-1.65477e-95
4.07243e-95
3.03645e-96
9.33406e-95
-5.35468e-96
5.78125e-95
4.65739e-95
3.89578e-95
4.67767e-95
-1.53922e-95
2.20073e-94
-9.69619e-95
3.92798e-94
-2.57473e-94
7.10812e-94
-1.93975e-93
2.17663e-93
-3.06501e-93
2.92835e-93
-5.01502e-93
7.33655e-93
-7.08082e-93
1.2203e-92
-1.22718e-92
7.70474e-93
-2.6201e-92
5.51388e-92
-1.27409e-91
3.06074e-92
-1.20549e-91
9.4466e-92
-1.20078e-91
1.00896e-91
-1.19754e-91
9.31134e-92
-2.88812e-91
8.36414e-93
-2.7742e-91
8.24979e-92
-2.6066e-91
1.02166e-91
-5.62234e-91
2.69862e-91
-8.2584e-91
2.21186e-91
-8.51755e-91
5.95358e-91
-1.26373e-90
1.34779e-90
-2.31201e-90
2.42285e-91
-2.25391e-90
3.49783e-91
-3.87753e-90
-2.05254e-90
-2.94964e-90
-2.178e-91
-2.28216e-90
9.59273e-92
-2.15909e-90
1.32101e-90
-2.54243e-90
1.00727e-90
-5.7606e-90
1.50275e-90
-6.05736e-90
3.79945e-90
-1.65769e-89
3.68595e-90
-2.16311e-89
1.80643e-90
-1.87274e-89
2.70004e-90
-1.992e-89
1.06091e-89
-2.65203e-89
-2.74748e-90
-2.63099e-89
8.5003e-90
-3.34709e-89
-1.22675e-89
-2.56683e-89
-5.22333e-90
-1.95432e-89
-1.95586e-90
-1.72847e-89
1.56846e-90
-1.40448e-89
4.03251e-90
-1.43181e-89
1.16839e-89
-3.625e-89
1.55607e-90
-3.52504e-89
2.27958e-89
-4.79952e-89
1.60417e-89
-4.42925e-89
2.09686e-89
-8.30864e-89
-2.39999e-90
-7.24151e-89
1.15267e-89
-6.49189e-89
1.25073e-89
-9.40313e-89
1.80747e-89
-8.96297e-89
9.93899e-90
-1.54878e-88
2.09019e-88
-2.6446e-88
1.0025e-88
-3.7793e-88
-4.43208e-89
-3.25543e-88
6.91881e-90
-3.85663e-88
-2.71461e-89
-3.57875e-88
8.35299e-89
-4.49714e-88
-4.36953e-89
-3.66006e-88
5.51466e-89
-6.63094e-88
-6.19852e-89
-6.01867e-88
1.107e-88
-5.3769e-88
9.51952e-89
-7.87489e-88
1.04478e-88
-9.01415e-88
-1.94482e-89
-7.49127e-88
4.32358e-89
-7.60715e-88
3.51113e-88
-7.79404e-88
-1.42693e-89
-7.25067e-88
2.117e-88
-5.88563e-88
1.49187e-88
-5.4151e-88
1.68317e-88
-6.24485e-88
-1.01523e-88
-4.82162e-88
-2.17185e-89
-4.55663e-88
-6.57975e-89
-4.84863e-88
-1.65659e-88
-3.74558e-88
-8.32969e-89
-4.69299e-88
-7.38804e-89
-4.5556e-88
-6.85709e-89
-3.62576e-88
-4.88307e-89
-3.06019e-88
4.30365e-89
-2.87471e-88
-4.17996e-89
-2.2494e-88
4.0156e-90
-2.54657e-88
2.04008e-89
-2.29514e-88
-7.81296e-90
-1.8054e-88
-3.19586e-89
-1.46341e-88
-1.64795e-89
-3.61576e-88
-5.10505e-89
6.76825e-87
-7.88745e-87
4.76592e-85
3.00379e-85
2.91035e-84
2.556e-84
-1.14977e-82
8.50326e-83
1.74506e-80
1.45649e-81
-1.45319e-78
-2.10539e-79
-2.14531e-77
7.80385e-79
-2.90639e-76
-3.48902e-76
-1.17089e-75
-2.31905e-75
-1.47739e-73
-6.05869e-74
2.05886e-73
-1.51821e-72
-3.10889e-72
1.00086e-71
1.79584e-70
-1.75733e-70
-4.79183e-69
-5.80732e-69
-1.43177e-68
-1.46379e-67
-1.77954e-69
-1.60918e-15
-7.92439e-11
-4.85255e-09
2.65782e-08
3.90592e-08
-8.25633e-09
-1.84091e-12
1.27118e-11
-3.58477e-12
-4.87864e-19
1.40316e-10
2.44062e-21
-1.2082e-22
2.45081e-24
4.86113e-27
-4.37698e-28
4.4902e-30
7.91586e-34
-9.21592e-35
1.0851e-37
4.56315e-39
-4.04446e-41
2.09e-43
-7.39596e-46
1.90435e-48
1.23871e-51
-1.89618e-54
-5.90145e-55
1.00217e-56
-9.25518e-59
4.69351e-61
-1.5576e-63
1.86481e-66
-4.23689e-67
-1.33028e-08
-8.21384e-11
-1.01685e-07
-7.47687e-08
3.50599e-07
5.83809e-07
-2.0947e-06
-1.17546e-05
-2.80272e-05
-3.57617e-05
1.0376e-05
0.000188743
0.000631619
0.00147476
0.00283267
0.00494972
0.00750334
0.0106459
0.0140366
0.0169369
0.0202038
0.0214021
0.0199972
0.0186905
0.0136163
0.00670357
-0.00224774
-0.0115616
-0.0224848
-0.0329675
-0.0428278
-0.0496195
-0.0534402
-0.0568744
-0.0574207
-0.054294
-0.0516579
-0.0467052
-0.0408728
-0.035043
-0.0273982
-0.0214913
-0.016512
-0.0095368
-0.00711339
-0.0038892
-0.00160394
-0.000615932
0.00051074
0.00104979
0.00142834
0.00151262
0.00110415
0.00106114
0.000914717
0.000748607
0.000625042
0.000498557
0.000367835
0.000338729
0.00022925
0.000178522
0.000131342
9.50849e-05
6.784e-05
4.305e-05
2.85177e-05
2.16675e-05
1.39602e-05
9.00881e-06
5.85904e-06
4.07847e-06
2.49515e-06
1.6003e-06
1.10126e-06
7.80761e-07
4.76233e-07
2.58923e-07
1.12784e-07
1.46617e-10
-5.58142e-07
3.91571e-15
2.88358e-12
9.61449e-11
1.36128e-10
3.55219e-10
2.47175e-10
1.42844e-09
-6.98701e-10
-2.40081e-09
1.15301e-10
-2.63203e-11
1.878e-12
6.0434e-09
-9.14506e-11
-1.53049e-11
4.3051e-11
9.88203e-23
6.84649e-12
3.43336e-12
6.78287e-12
-8.78347e-11
9.43745e-11
-5.87008e-11
1.81613e-11
-4.37714e-11
6.77693e-12
-4.1031e-11
-8.60015e-18
-8.03626e-19
9.43649e-09
1.38165e-08
-3.69608e-15
-3.96582e-15
-1.1198e-09
2.31971e-10
-4.03735e-10
3.10159e-10
4.62544e-10
5.78157e-11
1.08569e-10
1.19279e-10
1.15614e-10
3.32057e-10
1.7417e-10
9.87228e-10
6.97268e-10
2.63694e-10
9.47949e-10
-5.71167e-10
1.45497e-10
-1.77645e-09
-2.93245e-10
-1.94381e-09
-9.36868e-10
-7.33932e-11
-1.28916e-10
2.09493e-09
1.49506e-09
2.88674e-10
3.28608e-09
-1.31643e-09
5.1727e-09
-3.59295e-09
3.93418e-09
-3.20228e-09
1.3768e-09
7.64872e-10
8.31152e-09
6.11884e-09
1.51497e-08
1.50293e-08
2.97709e-08
4.49053e-09
3.7163e-08
-3.2758e-08
3.34668e-08
-9.08339e-08
8.6328e-09
-1.42061e-07
-2.15241e-08
-1.58548e-07
-3.37943e-08
-7.7723e-08
1.47139e-08
1.04522e-07
1.77842e-07
3.618e-07
4.46032e-07
5.0726e-07
7.51116e-07
2.42703e-07
9.34575e-07
-8.36178e-07
6.28182e-07
-3.21947e-06
-5.93398e-07
-7.2537e-06
-3.34993e-06
-1.30736e-05
-8.15201e-06
-1.95321e-05
-1.53584e-05
-2.49707e-05
-2.45889e-05
-2.57949e-05
-3.57796e-05
-1.71553e-05
-4.60193e-05
8.88828e-06
-5.24905e-05
6.21479e-05
-5.20548e-05
0.000156558
-3.88795e-05
0.000306397
-1.17884e-05
0.000527811
4.55533e-05
0.000853494
0.000135153
0.00126208
0.000292988
0.00181486
0.0004834
0.00254307
0.000720288
0.00335703
0.001099
0.00430383
0.0014101
0.00543589
0.00188675
0.00662937
0.00229674
0.00799168
0.00270727
0.00960434
0.00318413
0.0110574
0.00384155
0.0125696
0.00399044
0.0140126
0.00446109
0.0155744
0.0046092
0.0165628
0.0048262
0.0176886
0.00454326
0.0184917
0.00413976
0.0188525
0.00399974
0.0191209
0.002668
0.0186518
0.0024972
0.0173624
0.000613065
0.0163572
-0.00170754
0.0150962
-0.00321661
0.0123616
-0.00486471
0.010042
-0.00847918
0.00628478
-0.00982692
0.00190983
-0.0133958
-0.00192207
-0.0170903
-0.00680982
-0.0192305
-0.0109518
-0.0236769
-0.0140682
-0.0259954
-0.0183784
-0.0274031
-0.0232376
-0.0300776
-0.0277142
-0.0323259
-0.0316596
-0.0348821
-0.0355437
-0.0361417
-0.0394089
-0.037176
-0.0415586
-0.0382209
-0.0449683
-0.0383358
-0.0467656
-0.0383012
-0.0478447
-0.0373521
-0.0479416
-0.0357277
-0.0484372
-0.0339208
-0.048483
-0.0321637
-0.0478005
-0.0306595
-0.0470269
-0.0282011
-0.0447244
-0.0255634
-0.042949
-0.0221425
-0.0404611
-0.0192819
-0.0377886
-0.0167678
-0.0354536
-0.0126309
-0.0323412
-0.011666
-0.0284862
-0.00773107
-0.0261778
-0.00374175
-0.0238001
-0.00251017
-0.0201638
-0.000702667
-0.0178287
0.00304262
-0.0150268
0.0036274
-0.0123643
0.0058382
-0.0093886
0.00743863
-0.00769425
0.00938993
-0.00579579
0.00994452