/*--------------------------------*- C++ -*----------------------------------*\
  =========                 |
  \\      /  F ield         | OpenFOAM: The Open Source CFD Toolbox
   \\    /   O peration     | Website:  https://openfoam.org
    \\  /    A nd           | Version:  7
     \\/     M anipulation  |
\*---------------------------------------------------------------------------*/
FoamFile
{
    version     2.0;
    format      ascii;
    class       volScalarField;
    location    "0.5";
    object      T;
}
// * * * * * * * * * * * * * * * * * * * * * * * * * * * * * * * * * * * * * //

dimensions      [0 0 0 1 0 0 0];

internalField   nonuniform List<scalar> 
2500
(
0.5
0.0669146
-0.0353169
-0.0277115
-0.00789976
0.00112931
0.00220711
0.000963794
3.88558e-05
-0.000206219
-0.000130475
-2.60558e-05
1.76164e-05
1.74855e-05
6.09046e-06
-8.95359e-07
-2.18994e-06
-1.11319e-06
-8.76108e-08
2.56607e-07
1.83207e-07
3.58948e-08
-3.80744e-08
-4.13518e-08
-1.89707e-08
-8.19034e-10
5.93227e-09
5.35619e-09
2.69523e-09
6.69398e-10
-2.12818e-10
-3.601e-10
-2.39196e-10
-1.03053e-10
-2.4682e-11
4.38195e-12
8.9006e-12
5.89803e-12
2.63337e-12
7.94018e-13
7.76938e-14
-9.28835e-14
-8.20246e-14
-4.26801e-14
-1.62909e-14
-4.3205e-15
-3.39292e-16
4.65715e-16
3.80372e-16
1.66216e-16
0.933085
0.5
0.14482
-0.0139075
-0.0411718
-0.0230289
-0.00507433
0.00215701
0.00250723
0.00101071
-8.90587e-08
-0.000255316
-0.000158205
-3.18225e-05
2.20051e-05
2.23647e-05
8.1433e-06
-9.58188e-07
-2.82821e-06
-1.48511e-06
-9.90833e-08
4.01003e-07
3.08705e-07
8.58149e-08
-4.44045e-08
-6.75714e-08
-4.16808e-08
-1.29963e-08
2.19449e-09
5.80234e-09
4.23511e-09
1.91319e-09
4.51175e-10
-1.17916e-10
-2.03338e-10
-1.32813e-10
-5.78189e-11
-1.57643e-11
8.86711e-14
3.25285e-12
2.40344e-12
1.15238e-12
3.96846e-13
7.97084e-14
-1.24448e-14
-2.25152e-14
-1.38307e-14
-6.01934e-15
-1.99378e-15
-2.55875e-16
1.03532
0.85518
0.5
0.182448
0.00830364
-0.0419281
-0.032441
-0.0120093
3.84469e-05
0.00307767
0.00201936
0.000522634
-0.000189749
-0.000261949
-0.00011895
-6.15373e-06
2.84342e-05
1.99781e-05
4.89888e-06
-2.52123e-06
-3.04343e-06
-1.20961e-06
1.77401e-07
5.56777e-07
3.75066e-07
1.09686e-07
-3.79186e-08
-6.89604e-08
-4.66546e-08
-1.85291e-08
-2.00324e-09
3.47799e-09
3.38579e-09
1.8595e-09
6.61816e-10
8.68207e-11
-8.16837e-11
-8.18844e-11
-4.52189e-11
-1.74103e-11
-4.06113e-12
3.3686e-13
1.00312e-12
6.66476e-13
3.02042e-13
1.00556e-13
2.03092e-14
-2.29614e-15
-4.90201e-15
-2.76756e-15
1.02771
1.01391
0.817552
0.5
0.206389
0.0268058
-0.0388677
-0.0384381
-0.0184166
-0.00302402
0.00284103
0.00282239
0.00118546
4.26208e-05
-0.000296172
-0.000211678
-5.99527e-05
1.89436e-05
2.92681e-05
1.37601e-05
4.02006e-07
-4.0102e-06
-2.95458e-06
-8.14221e-07
4.07034e-07
6.22707e-07
3.83409e-07
1.18508e-07
-2.15906e-08
-5.45144e-08
-3.95447e-08
-1.77017e-08
-4.00304e-09
1.27618e-09
2.00623e-09
1.28765e-09
5.51201e-10
1.43654e-10
-7.0527e-12
-3.48044e-11
-2.46342e-11
-1.15274e-11
-3.83547e-12
-6.83642e-13
1.89855e-13
2.54611e-13
1.48578e-13
6.2479e-14
1.97599e-14
1.96939e-15
1.0079
1.04117
0.991696
0.793611
0.5
0.223365
0.042154
-0.0343031
-0.0421139
-0.0239644
-0.00647536
0.00197763
0.00332503
0.00186781
0.000400739
-0.000244615
-0.000284973
-0.000128062
-6.45173e-06
3.26992e-05
2.41921e-05
6.57601e-06
-3.21275e-06
-4.68559e-06
-2.59172e-06
-4.92547e-07
4.74527e-07
5.6725e-07
3.32041e-07
1.08458e-07
-5.76386e-09
-3.51581e-08
-2.74303e-08
-1.32952e-08
-3.91872e-09
4.51506e-11
9.32058e-10
7.12714e-10
3.47443e-10
1.16222e-10
1.76365e-11
-9.48858e-12
-1.03154e-11
-5.77871e-12
-2.33025e-12
-6.61067e-13
-7.25007e-14
5.92244e-14
5.37257e-14
2.44478e-14
0.998871
1.02303
1.04193
0.973194
0.776635
0.5
0.236308
0.0551561
-0.0291434
-0.0442027
-0.0286475
-0.0100132
0.000663369
0.00351536
0.00249244
0.000837327
-0.000110871
-0.000324716
-0.000200226
-4.60428e-05
2.80401e-05
3.46677e-05
1.64975e-05
9.34358e-07
-4.9657e-06
-4.43087e-06
-2.05064e-06
-2.84907e-07
4.09007e-07
4.34703e-07
2.47094e-07
8.45401e-08
3.40423e-09
-1.90392e-08
-1.61978e-08
-8.35815e-09
-2.85138e-09
-3.61665e-10
3.34007e-10
3.29224e-10
1.80516e-10
7.01305e-11
1.74446e-11
-2.19325e-13
-3.30683e-12
-2.34137e-12
-1.10356e-12
-3.88634e-13
-9.28207e-14
7.61377e-15
0.997793
1.00507
1.03244
1.03887
0.957846
0.763692
0.5
0.246668
0.0663827
-0.0238072
-0.0451886
-0.032552
-0.0134731
-0.000958998
0.00341681
0.00301403
0.00130944
9.07052e-05
-0.000326956
-0.000270932
-9.98527e-05
1.15231e-05
4.17118e-05
2.90321e-05
9.3154e-06
-2.17122e-06
-4.97995e-06
-3.54555e-06
-1.45724e-06
-1.61924e-07
2.89266e-07
2.87786e-07
1.60498e-07
5.69224e-08
6.09034e-09
-8.77874e-09
-8.33955e-09
-4.5487e-09
-1.70977e-09
-3.5425e-10
7.89499e-11
1.28752e-10
8.0269e-11
3.49464e-11
1.08645e-11
1.65313e-12
-6.96172e-13
-7.75055e-13
-4.34931e-13
-1.46399e-13
0.999036
0.997843
1.01201
1.03844
1.0343
0.944844
0.753332
0.5
0.25525
0.0762291
-0.018497
-0.0453952
-0.035784
-0.0167693
-0.00277898
0.00307036
0.00341519
0.00178848
0.000347136
-0.000290395
-0.000336424
-0.000168934
-2.24152e-05
3.8991e-05
3.9994e-05
2.05376e-05
4.19205e-06
-3.08405e-06
-3.97153e-06
-2.46054e-06
-9.28336e-07
-8.95394e-08
1.7604e-07
1.67874e-07
9.23197e-08
3.36502e-08
5.23765e-09
-3.44269e-09
-3.802e-09
-2.18913e-09
-8.84802e-10
-2.30886e-10
-1.393e-12
4.22318e-11
3.11062e-11
1.50133e-11
5.37898e-12
1.28258e-12
1.38719e-14
-2.16201e-13
0.999961
0.997493
0.999962
1.01842
1.04211
1.02914
0.933617
0.744751
0.5
0.262538
0.0849756
-0.0133126
-0.045042
-0.0384417
-0.0198563
-0.00470886
0.00252737
0.00370315
0.00226657
0.000658091
-0.000205561
-0.000386266
-0.000249178
-7.68279e-05
1.98182e-05
4.29953e-05
3.05785e-05
1.25686e-05
1.27083e-06
-2.71476e-06
-2.68576e-06
-1.50524e-06
-5.31259e-07
-4.7049e-08
9.46461e-08
8.75647e-08
4.76184e-08
1.77308e-08
3.41176e-09
-1.11869e-09
-1.54999e-09
-9.45357e-10
-4.05693e-10
-1.21962e-10
-1.4919e-11
1.10149e-11
1.05652e-11
5.68249e-12
2.28742e-12
4.87723e-13
1.00021
0.998989
0.996922
1.00302
1.02396
1.0442
1.02381
0.923771
0.737462
0.499999
0.268847
0.0928298
-0.00829651
-0.0442777
-0.040611
-0.022719
-0.00669073
0.00183013
0.00389172
0.00274718
0.00103442
-5.16933e-05
-0.00039808
-0.0003252
-0.000146237
-1.78341e-05
3.28456e-05
3.45096e-05
1.98016e-05
6.70679e-06
-1.87929e-08
-1.89857e-06
-1.58774e-06
-8.21834e-07
-2.74551e-07
-2.31511e-08
4.56721e-08
4.13037e-08
2.22618e-08
8.43708e-09
1.86822e-09
-2.72985e-10
-5.6792e-10
-3.70106e-10
-1.6764e-10
-5.57094e-11
-1.0836e-11
1.80651e-12
3.13565e-12
1.72797e-12
1.00013
1
0.997981
0.997159
1.00648
1.02865
1.04519
1.0185
0.915024
0.731151
0.499998
0.274396
0.099953
-0.00346491
-0.0432177
-0.0423869
-0.0253889
-0.00872081
0.000979008
0.00396773
0.00321737
0.00147837
0.000190841
-0.000343823
-0.000371748
-0.000214701
-6.77777e-05
9.20028e-06
2.9285e-05
2.27781e-05
1.1144e-05
3.12202e-06
-3.80487e-07
-1.13124e-06
-8.35497e-07
-4.04682e-07
-1.29096e-07
-1.06751e-08
1.99767e-08
1.77752e-08
9.52008e-09
3.6663e-09
8.99627e-10
-2.69189e-11
-1.86985e-10
-1.32298e-10
-6.31684e-11
-2.27014e-11
-5.61168e-12
3.57958e-13
1.00003
1.00026
0.999477
0.997178
0.998022
1.01001
1.03255
1.04539
1.01331
0.907169
0.725605
0.500002
0.279341
0.106459
0.00116337
-0.0419683
-0.043879
-0.0279405
-0.0108529
-8.33515e-05
0.00386648
0.00362045
0.00195782
0.000518803
-0.000206201
-0.000364315
-0.000261073
-0.000116846
-2.23679e-05
1.56031e-05
2.01138e-05
1.29223e-05
5.52964e-06
1.26208e-06
-3.48765e-07
-5.92378e-07
-3.96364e-07
-1.81445e-07
-5.57219e-08
-4.6655e-09
7.96895e-09
7.03003e-09
3.75384e-09
1.46876e-09
3.90708e-10
2.0181e-11
-5.4888e-11
-4.33576e-11
-2.20235e-11
-6.74482e-12
0.999982
1.00016
1.00019
0.998814
0.996675
0.999337
1.01347
1.03578
1.04504
1.0083
0.900059
0.720669
0.499996
0.283773
0.112431
0.00559667
-0.0405775
-0.0451456
-0.0304257
-0.0131462
-0.00143926
0.00348605
0.00385629
0.00239723
0.000891971
6.00609e-06
-0.000292556
-0.000268719
-0.000150558
-5.27417e-05
-2.40347e-06
1.27689e-05
1.1587e-05
6.44537e-06
2.44483e-06
4.38284e-07
-2.20994e-07
-2.77551e-07
-1.71277e-07
-7.47554e-08
-2.229e-08
-1.95993e-09
2.91037e-09
2.57081e-09
1.37429e-09
5.46804e-10
1.55544e-10
1.7537e-11
-1.40829e-11
-1.24421e-11
0.999983
1.00003
1.00026
0.999957
0.998133
0.996485
1.00096
1.01677
1.03844
1.04429
1.00349
0.893559
0.716198
0.499948
0.287785
0.118016
0.00997698
-0.0389237
-0.0460837
-0.0327683
-0.0155716
-0.00312018
0.00274369
0.00381849
0.00269775
0.00123968
0.000255382
-0.000167421
-0.000233473
-0.000159605
-7.34478e-05
-1.92695e-05
3.3596e-06
7.92412e-06
5.80476e-06
2.86987e-06
9.72635e-07
1.27564e-07
-1.14419e-07
-1.17847e-07
-6.80364e-08
-2.85519e-08
-8.34197e-09
-7.98808e-10
9.75034e-10
8.73795e-10
4.6996e-10
1.90417e-10
5.7838e-11
4.08495e-12
0.999994
0.999978
1.00012
1.0003
0.9996
0.997508
0.996582
1.00278
1.01986
1.04062
1.04324
0.998856
0.887541
0.712081
0.499887
0.291563
0.123505
0.0146385
-0.036668
-0.0463753
-0.0347001
-0.0179412
-0.005035
0.00164096
0.00344816
0.00277694
0.0014861
0.000488625
-1.74559e-05
-0.000165141
-0.000143338
-8.00727e-05
-3.06406e-05
-5.21187e-06
3.38629e-06
4.11125e-06
2.58343e-06
1.15535e-06
3.5184e-07
2.91195e-08
-5.12407e-08
-4.5822e-08
-2.50561e-08
-1.01939e-08
-2.94626e-09
-3.16314e-10
2.99608e-10
2.77158e-10
1.51819e-10
5.10822e-11
1
0.999978
1.00001
1.00021
1.00025
0.999161
0.996983
0.996931
1.00472
1.02272
1.04238
1.04196
0.994399
0.881948
0.708295
0.499892
0.295311
0.12921
0.019975
-0.0333684
-0.0455679
-0.035804
-0.0199183
-0.00695618
0.000293591
0.00277071
0.00260452
0.00157958
0.000656967
0.000122934
-8.24558e-05
-0.000108855
-7.32637e-05
-3.47237e-05
-1.09422e-05
-6.37711e-07
2.08633e-06
1.8592e-06
1.03781e-06
4.25624e-07
1.17078e-07
3.96139e-09
-2.04365e-08
-1.64672e-08
-8.62263e-09
-3.4281e-09
-9.89248e-10
-1.21156e-10
8.445e-11
7.86409e-11
1
0.999992
0.999971
1.00006
1.00029
1.00011
0.998684
0.996592
0.997499
1.0067
1.02533
1.04378
1.04057
0.990224
0.876787
0.704726
0.499787
0.298895
0.135129
0.0261499
-0.0287156
-0.0432629
-0.0356591
-0.0211193
-0.00858037
-0.00109508
0.00189373
0.00221461
0.0015102
0.000732949
0.000226238
-5.10215e-06
-6.70229e-05
-5.73903e-05
-3.23011e-05
-1.32099e-05
-3.31171e-06
3.36093e-07
1.02234e-06
7.51304e-07
3.81457e-07
1.45176e-07
3.62978e-08
-5.39079e-10
-7.39613e-09
-5.51502e-09
-2.79267e-09
-1.09291e-09
-3.19966e-10
-1.60101e-11
1
1
0.99998
0.999983
1.00013
1.00032
0.999897
0.998221
0.996349
0.998205
1.00861
1.02768
1.04503
1.03939
0.986455
0.871739
0.700601
0.498574
0.301395
0.140625
0.0328574
-0.0227434
-0.0393124
-0.0340152
-0.0212553
-0.00963216
-0.00230152
0.000969725
0.00169044
0.00130861
0.000716202
0.0002795
5.28868e-05
-2.80205e-05
-3.81141e-05
-2.573e-05
-1.25616e-05
-4.45927e-06
-8.20212e-07
3.16339e-07
4.30343e-07
2.76231e-07
1.29853e-07
4.63672e-08
1.06285e-08
-6.50284e-10
-2.462e-09
-1.73349e-09
-8.62084e-10
-2.66437e-10
1
1
0.999995
0.999973
1.00001
1.00019
1.00031
0.999659
0.997812
0.996191
0.998888
1.0104
1.03006
1.04667
1.03873
0.982626
0.865385
0.693847
0.494086
0.301008
0.144437
0.0393206
-0.0158849
-0.0339178
-0.030907
-0.0202408
-0.0099561
-0.00315376
0.00014539
0.00113303
0.00103005
0.000628112
0.00028484
8.59181e-05
1.59031e-06
-2.02368e-05
-1.76883e-05
-1.01368e-05
-4.384e-06
-1.34798e-06
-1.46737e-07
1.65691e-07
1.61525e-07
9.3741e-08
4.13868e-08
1.40128e-08
2.98073e-09
-3.02446e-10
-7.65693e-10
-4.67346e-10
1
1
1
0.999988
0.999972
1.00004
1.00024
1.00029
0.999438
0.997397
0.995927
0.999465
1.01241
1.03319
1.04921
1.03805
0.976759
0.8546
0.681005
0.483299
0.295509
0.145074
0.044539
-0.00885293
-0.0275904
-0.0266576
-0.0182201
-0.0095561
-0.00357495
-0.000478433
0.000629867
0.000733703
0.000500428
0.000254683
9.5892e-05
1.95923e-05
-6.58617e-06
-1.02622e-05
-7.10046e-06
-3.58903e-06
-1.39338e-06
-3.67304e-07
-6.32341e-09
6.89608e-08
5.53173e-08
2.97116e-08
1.24686e-08
4.04424e-09
8.18188e-10
-1.89793e-10
1
1
1
1
0.999982
0.999968
1.00007
1.00032
1.0003
0.999168
0.996753
0.995433
1.00031
1.01554
1.03782
1.05216
1.03497
0.964836
0.8348
0.658046
0.463325
0.28308
0.141384
0.0476393
-0.00242109
-0.0210046
-0.0217799
-0.0155106
-0.00857456
-0.00358709
-0.000862991
0.000235858
0.000466354
0.00036392
0.000205193
8.91579e-05
2.71713e-05
2.03471e-06
-4.5844e-06
-4.29674e-06
-2.54614e-06
-1.16209e-06
-4.08585e-07
-9.04904e-08
9.45128e-09
2.49427e-08
1.75661e-08
8.88044e-09
3.60398e-09
8.35079e-10
1
0.999999
1
1.00001
1
0.999964
0.999955
1.00014
1.00047
1.00029
0.998591
0.995699
0.995089
1.00248
1.02079
1.0436
1.05288
1.02478
0.941382
0.80124
0.62182
0.432565
0.263064
0.132989
0.0481512
0.00278998
-0.0148161
-0.0168315
-0.0125016
-0.00723219
-0.00328337
-0.00102477
-3.05814e-05
0.000254844
0.000241079
0.000150886
7.32387e-05
2.72913e-05
6.24835e-06
-9.23561e-07
-2.15328e-06
-1.5769e-06
-8.33483e-07
-3.49079e-07
-1.11835e-07
-2.01058e-08
5.6585e-09
8.15359e-09
5.26741e-09
2.14361e-09
1
1
0.999999
1
1.00001
0.999985
0.999927
0.99998
1.00032
1.00065
0.999968
0.997458
0.994583
0.996056
1.00722
1.02801
1.04778
1.04616
1.00129
0.901134
0.750796
0.57138
0.391442
0.236261
0.120407
0.0461075
0.00644233
-0.00951712
-0.0122832
-0.009553
-0.00576005
-0.00278776
-0.00101509
-0.000179852
0.000106721
0.000143813
0.000101755
5.45158e-05
2.32192e-05
7.33646e-06
1.0062e-06
-7.5601e-07
-8.35386e-07
-5.23709e-07
-2.53137e-07
-9.84693e-08
-2.88795e-08
-3.97963e-09
2.27597e-09
2.36269e-09
1
1
0.999998
1
1.00001
1
0.999942
0.999914
1.00013
1.00057
1.00056
0.99902
0.996058
0.99461
0.999773
1.01458
1.03444
1.04478
1.02522
0.958799
0.841068
0.683334
0.508533
0.342371
0.204694
0.104852
0.0419685
0.00850327
-0.00536792
-0.00844233
-0.00692828
-0.00434799
-0.0022189
-0.000897243
-0.000238611
1.57809e-05
7.48737e-05
6.27964e-05
3.7207e-05
1.76096e-05
6.63096e-06
1.71846e-06
1.12648e-08
-3.4915e-07
-2.86121e-07
-1.60663e-07
-7.22411e-08
-2.6353e-08
-7.15814e-09
-3.50942e-11
1
1
0.999999
1
1.00001
1.00001
0.999965
0.999914
1.00002
1.00037
1.00061
0.99985
0.997671
0.995584
0.997348
1.00652
1.02195
1.03433
1.02735
0.983889
0.894276
0.76175
0.602009
0.437397
0.289079
0.171025
0.0878724
0.0364447
0.00918253
-0.00240424
-0.00543764
-0.00477134
-0.00311976
-0.00166769
-0.000729015
-0.000237957
-3.11349e-05
3.10463e-05
3.5047e-05
2.33722e-05
1.21725e-05
5.17759e-06
1.7218e-06
3.38933e-07
-7.5904e-08
-1.29787e-07
-8.94156e-08
-4.61887e-08
-1.97025e-08
-5.20456e-09
1
1
0.999999
1
1.00001
1.00001
0.999979
0.999936
0.999988
1.00022
1.00045
1.00007
0.998685
0.997069
0.997666
1.00326
1.01381
1.02345
1.02004
0.98887
0.918986
0.808717
0.66741
0.512444
0.363293
0.235637
0.137898
0.0709704
0.0303
0.00882813
-0.000495613
-0.00325058
-0.00311866
-0.00213229
-0.00118971
-0.000553353
-0.000205387
-4.85446e-05
6.40329e-06
1.71365e-05
1.34655e-05
7.74506e-06
3.63901e-06
1.40444e-06
4.08448e-07
4.97742e-08
-4.07478e-08
-4.24144e-08
-2.61759e-08
-1.06851e-08
1
1
0.999999
1
1.00001
1.00001
0.999983
0.999956
1
1.00016
1.00028
0.999989
0.999084
0.998162
0.998849
1.00288
1.01001
1.01583
1.01124
0.984538
0.925855
0.83165
0.707069
0.56483
0.421267
0.291471
0.185591
0.107443
0.0553395
0.0241987
0.00782256
0.000578291
-0.00176817
-0.00193062
-0.00138998
-0.000808612
-0.000396304
-0.000161081
-4.89138e-05
-5.29159e-06
6.69325e-06
7.01542e-06
4.54525e-06
2.34424e-06
1.00946e-06
3.55153e-07
8.84428e-08
1.96482e-09
-1.55483e-08
-1.17609e-08
1
1
0.999999
1
1.00001
1
0.999982
0.999965
1.00002
1.00015
1.00019
0.999841
0.999115
0.998699
0.999889
1.00364
1.00903
1.01186
1.0046
0.977973
0.924025
0.839378
0.727201
0.596897
0.461608
0.334618
0.226117
0.141439
0.081031
0.0417434
0.0186212
0.00650616
0.0010596
-0.000835793
-0.00112656
-0.000864353
-0.000524977
-0.000269572
-0.000117478
-4.12889e-05
-9.25259e-06
1.29674e-06
3.18444e-06
2.44569e-06
1.39419e-06
6.59376e-07
2.62927e-07
8.44107e-08
1.7438e-08
-3.90659e-09
1
1
0.999999
1
1.00001
1
0.999979
0.999967
1.00003
1.00017
1.00015
0.999731
0.999014
0.998845
1.00049
1.00452
1.00935
1.01047
1.00083
0.972595
0.919556
0.839389
0.73489
0.613682
0.486483
0.364535
0.257107
0.169866
0.104473
0.0592606
0.0305216
0.013845
0.00513631
0.00116567
-0.000297401
-0.000613695
-0.000512134
-0.000326073
-0.000174939
-8.07171e-05
-3.1327e-05
-9.21927e-06
-1.03764e-06
1.12495e-06
1.18417e-06
7.65044e-07
3.96714e-07
1.74529e-07
6.53551e-08
1.37132e-08
1
1
0.999999
1
1.00001
1
0.999978
0.999966
1.00004
1.00018
1.00015
0.999679
0.998912
0.998811
1.00073
1.0051
1.00998
1.0104
0.999252
0.969304
0.915505
0.836674
0.736055
0.620677
0.499825
0.383084
0.278513
0.191386
0.12378
0.0749267
0.0421043
0.0216741
0.00997108
0.00387819
0.00106603
-1.91598e-05
-0.000305981
-0.000288183
-0.000193848
-0.000108634
-5.2672e-05
-2.20153e-05
-7.54452e-06
-1.71844e-06
1.49125e-07
4.91012e-07
3.83554e-07
2.20653e-07
1.06909e-07
3.5825e-08
1
1
0.999999
1
1.00001
1
0.999977
0.999964
1.00004
1.00019
1.00016
0.999666
0.99885
0.998735
1.00076
1.00538
1.01048
1.01077
0.998909
0.967755
0.912845
0.833844
0.73466
0.622406
0.505753
0.393232
0.291841
0.206192
0.138255
0.0876461
0.0522697
0.0291148
0.0149759
0.00697176
0.00281625
0.000877905
0.000101168
-0.000133375
-0.000152979
-0.000110204
-6.46653e-05
-3.28149e-05
-1.4558e-05
-5.51964e-06
-1.63299e-06
-2.27797e-07
1.47471e-07
1.70929e-07
1.13789e-07
5.16228e-08
1
1
0.999999
1
1.00001
1
0.999977
0.999963
1.00004
1.00019
1.00017
0.999669
0.998826
0.998676
1.00072
1.00546
1.01076
1.01115
0.999061
0.967262
0.911474
0.831843
0.732837
0.6219
0.507607
0.397966
0.299252
0.215441
0.148174
0.0970953
0.0604124
0.0355305
0.0196278
0.010086
0.00474232
0.00197534
0.000672913
0.000134564
-4.41148e-05
-7.55971e-05
-5.97487e-05
-3.69189e-05
-1.95838e-05
-9.14304e-06
-3.73524e-06
-1.27841e-06
-3.11067e-07
-2.78337e-10
6.32644e-08
4.87119e-08
1
1
0.999999
1
1.00001
1
0.999977
0.999963
1.00004
1.00019
1.00018
0.999676
0.998821
0.998646
1.00067
1.00546
1.01087
1.01139
0.999307
0.967251
0.910943
0.83073
0.731433
0.620831
0.507629
0.399672
0.302842
0.220652
0.154386
0.103544
0.066409
0.0406045
0.0235727
0.012921
0.00663168
0.00314414
0.00134288
0.000488453
0.000126114
-2.88604e-06
-3.38159e-05
-3.07163e-05
-2.01996e-05
-1.12171e-05
-5.48545e-06
-2.37869e-06
-8.96883e-07
-2.73608e-07
-4.92786e-08
1.88539e-08
1
1
0.999999
1
1.00001
1
0.999977
0.999963
1.00004
1.00019
1.00018
0.999681
0.998824
0.998636
1.00065
1.00543
1.01089
1.01151
0.999491
0.967383
0.910836
0.830242
0.730596
0.619913
0.507076
0.399953
0.304265
0.223254
0.157924
0.10759
0.0704854
0.0443105
0.0266553
0.0152878
0.00831833
0.00426335
0.00203525
0.000887355
0.000339307
0.000101902
1.27237e-05
-1.27566e-05
-1.48075e-05
-1.05632e-05
-6.16986e-06
-3.15514e-06
-1.43966e-06
-5.83078e-07
-2.04027e-07
-3.7177e-08
1
1
0.999999
1
1.00001
1
0.999977
0.999963
1.00004
1.00019
1.00018
0.999683
0.998828
0.998635
1.00063
1.00541
1.01088
1.01154
0.999591
0.967507
0.910883
0.830093
0.730192
0.619325
0.506518
0.399721
0.30463
0.224358
0.159735
0.109916
0.0730462
0.04682
0.0288892
0.0171165
0.00970593
0.00524438
0.00268352
0.00128831
0.000571311
0.000227147
7.54066e-05
1.59656e-05
-3.0671e-06
-6.5435e-06
-5.25036e-06
-3.25595e-06
-1.7432e-06
-8.32843e-07
-3.59838e-07
-1.07978e-07
1
1
0.999999
1
1.00001
1
0.999977
0.999963
1.00004
1.00019
1.00018
0.999684
0.99883
0.998637
1.00063
1.0054
1.01087
1.01155
0.999632
0.967585
0.910956
0.830088
0.730042
0.619019
0.506132
0.39941
0.304577
0.224709
0.160544
0.111131
0.0745298
0.0483978
0.0303961
0.0184318
0.0107666
0.00604036
0.00324208
0.00165592
0.000798592
0.000359142
0.00014728
5.24914e-05
1.41017e-05
7.89314e-07
-2.51275e-06
-2.45385e-06
-1.64377e-06
-9.2524e-07
-4.6553e-07
-1.73962e-07
1
1
0.999999
1
1.00001
1
0.999977
0.999963
1.00004
1.00019
1.00018
0.999684
0.998831
0.998639
1.00063
1.00539
1.01086
1.01154
0.999643
0.967622
0.911009
0.830123
0.73001
0.61889
0.505916
0.399172
0.304421
0.224741
0.160836
0.111695
0.0753175
0.0493178
0.031344
0.0193157
0.0115241
0.00664268
0.00368939
0.0019676
0.00100293
0.000485407
0.000220837
9.28427e-05
3.48776e-05
1.07638e-05
1.89738e-06
-7.0261e-07
-1.05525e-06
-7.88874e-07
-4.74707e-07
-2.12834e-07
1
1
0.999999
1
1.00001
1
0.999977
0.999963
1.00004
1.00019
1.00018
0.999684
0.998831
0.99864
1.00063
1.00539
1.01085
1.01153
0.999642
0.967635
0.911038
0.830155
0.730021
0.61885
0.505816
0.39903
0.304285
0.224676
0.160899
0.111918
0.0756954
0.0498131
0.0318998
0.0198718
0.0120313
0.00706991
0.00402465
0.00221414
0.00117356
0.00059686
0.000289658
0.00013304
5.70713e-05
2.23197e-05
7.54494e-06
1.86523e-06
1.28115e-08
-3.96819e-07
-3.58476e-07
-2.05915e-07
1
1
0.999999
1
1.00001
1
0.999977
0.999963
1.00004
1.00019
1.00018
0.999684
0.998831
0.99864
1.00063
1.00539
1.01085
1.01153
0.999639
0.967637
0.91105
0.830175
0.730037
0.618847
0.50578
0.398959
0.304197
0.224603
0.16088
0.111982
0.0758541
0.0500569
0.0322025
0.0201994
0.0123504
0.00735496
0.00426091
0.00239725
0.00130698
0.000688606
0.000349369
0.000169882
7.86371e-05
3.4293e-05
1.384e-05
4.98864e-06
1.46609e-06
2.29785e-07
-1.11992e-07
-1.43017e-07
1
1
0.999999
1
1.00001
1
0.999977
0.999963
1.00004
1.00019
1.00018
0.999684
0.998831
0.99864
1.00063
1.00539
1.01085
1.01153
0.999636
0.967636
0.911054
0.830185
0.73005
0.618854
0.505771
0.398929
0.30415
0.224552
0.160846
0.111985
0.0759079
0.0501643
0.0323547
0.0203797
0.012539
0.00753422
0.004418
0.00252549
0.00140521
0.000759555
0.000397864
0.000201333
9.8025e-05
4.56627e-05
2.01831e-05
8.35179e-06
3.1566e-06
1.03147e-06
2.46365e-07
-2.44558e-08
1
1
0.999999
1
1.00001
1
0.999977
0.999963
1.00004
1.00019
1.00018
0.999684
0.998831
0.99864
1.00063
1.00539
1.01085
1.01153
0.999635
0.967635
0.911054
0.830188
0.730057
0.618861
0.505773
0.39892
0.304129
0.224523
0.160818
0.111971
0.0759181
0.0502046
0.0324243
0.0204719
0.0126438
0.00764056
0.00451673
0.00261047
0.0014736
0.000811366
0.000434975
0.000226554
0.000114326
5.57015e-05
2.6079e-05
1.1655e-05
4.9209e-06
1.92805e-06
6.81644e-07
1.39984e-07
1
1
0.999999
1
1.00001
1
0.999977
0.999963
1.00004
1.00019
1.00018
0.999684
0.998831
0.99864
1.00063
1.00539
1.01085
1.01153
0.999634
0.967634
0.911054
0.830189
0.73006
0.618865
0.505776
0.398919
0.304121
0.224509
0.160801
0.111957
0.0759141
0.0502156
0.0324523
0.0205153
0.0126981
0.00770002
0.00457546
0.00266384
0.00151876
0.000847234
0.000461865
0.000245664
0.000127242
6.40221e-05
3.11975e-05
1.46647e-05
6.61334e-06
2.83757e-06
1.15174e-06
3.34264e-07
1
1
0.999999
1
1.00001
1
0.999977
0.999963
1.00004
1.00019
1.00018
0.999684
0.998831
0.99864
1.00063
1.00539
1.01085
1.01153
0.999634
0.967634
0.911053
0.830189
0.730061
0.618868
0.505778
0.39892
0.304119
0.224503
0.160792
0.111948
0.0759078
0.0502159
0.0324614
0.0205337
0.0127244
0.00773129
0.00460851
0.00269566
0.00154711
0.000870842
0.000480379
0.000259407
0.000136936
7.05394e-05
3.53829e-05
1.72365e-05
8.12706e-06
3.69117e-06
1.61641e-06
5.40152e-07
1
1
0.999999
1
1.00001
1
0.999977
0.999963
1.00004
1.00019
1.00018
0.999684
0.998831
0.99864
1.00063
1.00539
1.01085
1.01153
0.999634
0.967634
0.911053
0.830189
0.730061
0.618869
0.505779
0.398921
0.304119
0.224501
0.160788
0.111942
0.0759029
0.0502135
0.0324631
0.0205404
0.0127359
0.00774667
0.00462608
0.00271366
0.00156404
0.000885644
0.000492526
0.00026882
0.000143859
7.53879e-05
3.8626e-05
1.93127e-05
9.40133e-06
4.44147e-06
2.04379e-06
7.40878e-07
1
1
0.999999
1
1.00001
1
0.999977
0.999963
1.00004
1.00019
1.00018
0.999684
0.998831
0.99864
1.00063
1.00539
1.01085
1.01153
0.999634
0.967633
0.911053
0.830189
0.730061
0.618869
0.50578
0.398922
0.304119
0.224501
0.160786
0.11194
0.0759
0.0502112
0.0324625
0.0205422
0.0127405
0.00775368
0.00463487
0.00272332
0.00157366
0.000894497
0.000500133
0.000274976
0.000148576
7.88265e-05
4.10181e-05
2.09051e-05
1.04177e-05
5.06424e-06
2.41338e-06
9.23591e-07
1
1
0.999999
1
1.00001
1
0.999977
0.999963
1.00004
1.00019
1.00018
0.999684
0.998831
0.99864
1.00063
1.00539
1.01085
1.01153
0.999634
0.967633
0.911053
0.830189
0.730061
0.618869
0.50578
0.398922
0.304119
0.224501
0.160786
0.111939
0.0758985
0.0502096
0.0324615
0.0205423
0.012742
0.00775659
0.00463898
0.00272822
0.00157887
0.00089955
0.000504689
0.000278827
0.000151652
8.11585e-05
4.27037e-05
2.20702e-05
1.11897e-05
5.55531e-06
2.71611e-06
1.08038e-06
1
1
0.999999
1
1.00001
1
0.999977
0.999963
1.00004
1.00019
1.00018
0.999684
0.998831
0.99864
1.00063
1.00539
1.01085
1.01153
0.999634
0.967633
0.911053
0.830189
0.730061
0.618869
0.50578
0.398923
0.30412
0.224501
0.160786
0.111938
0.0758978
0.0502088
0.0324608
0.020542
0.0127422
0.00775763
0.00464075
0.00273056
0.00158154
0.000902303
0.000507298
0.000281135
0.000153573
8.26741e-05
4.38414e-05
2.28859e-05
1.17501e-05
5.92481e-06
2.95224e-06
1.20807e-06
1
1
0.999999
1
1.00001
1
0.999977
0.999963
1.00004
1.00019
1.00018
0.999684
0.998831
0.99864
1.00063
1.00539
1.01085
1.01153
0.999634
0.967633
0.911053
0.830189
0.730061
0.618869
0.50578
0.398923
0.30412
0.224501
0.160786
0.111938
0.0758976
0.0502084
0.0324603
0.0205416
0.0127422
0.00775792
0.00464143
0.00273161
0.00158284
0.000903733
0.000508729
0.000282462
0.000154726
8.36204e-05
4.4579e-05
2.34344e-05
1.21404e-05
6.19129e-06
3.12853e-06
1.30739e-06
1
1
0.999999
1
1.00001
1
0.999977
0.999963
1.00004
1.00019
1.00018
0.999684
0.998831
0.99864
1.00063
1.00539
1.01085
1.01153
0.999634
0.967633
0.911053
0.830189
0.730061
0.618869
0.50578
0.398923
0.30412
0.224501
0.160786
0.111938
0.0758975
0.0502082
0.0324601
0.0205414
0.012742
0.00775795
0.00464166
0.00273203
0.00158343
0.000904435
0.000509474
0.000283188
0.000155385
8.41829e-05
4.50341e-05
2.37849e-05
1.23985e-05
6.37335e-06
3.25292e-06
1.38017e-06
1
1
0.999999
1
1.00001
1
0.999977
0.999963
1.00004
1.00019
1.00018
0.999684
0.998831
0.99864
1.00063
1.00539
1.01085
1.01153
0.999634
0.967633
0.911053
0.830189
0.730061
0.618869
0.50578
0.398923
0.30412
0.224501
0.160786
0.111938
0.0758975
0.0502081
0.03246
0.0205413
0.0127419
0.0077579
0.00464171
0.0027322
0.00158372
0.000904811
0.000509904
0.000283633
0.000155811
8.45643e-05
4.53565e-05
2.40438e-05
1.25968e-05
6.51884e-06
3.35621e-06
1.44341e-06
)
;

boundaryField
{
    upperWall
    {
        type            zeroGradient;
    }
    outlet
    {
        type            zeroGradient;
    }
    inlet
    {
        type            fixedValue;
        value           uniform 1;
    }
    lowerWall
    {
        type            fixedValue;
        value           uniform 0;
    }
    frontAndBack
    {
        type            empty;
    }
}


// ************************************************************************* //
