/*--------------------------------*- C++ -*----------------------------------*\
  =========                 |
  \\      /  F ield         | OpenFOAM: The Open Source CFD Toolbox
   \\    /   O peration     | Website:  https://openfoam.org
    \\  /    A nd           | Version:  7
     \\/     M anipulation  |
\*---------------------------------------------------------------------------*/
FoamFile
{
    version     2.0;
    format      ascii;
    class       volScalarField;
    location    "0.15";
    object      T;
}
// * * * * * * * * * * * * * * * * * * * * * * * * * * * * * * * * * * * * * //

dimensions      [0 0 0 1 0 0 0];

internalField   nonuniform List<scalar> 
2500
(
0.49999
0.0669653
-0.0352435
-0.0278128
-0.00821995
0.000811093
0.00211904
0.00111808
0.000278827
-3.11225e-05
-6.59597e-05
-3.49532e-05
-1.13219e-05
-1.98189e-06
2.68033e-07
3.91406e-07
1.95133e-07
6.92114e-08
1.89337e-08
3.65807e-09
1.63703e-10
-2.75133e-10
-1.74987e-10
-7.38776e-11
-2.55905e-11
-7.64076e-12
-1.96077e-12
-4.05566e-13
-4.88401e-14
9.96458e-15
1.03564e-14
5.07133e-15
1.97665e-15
6.76334e-16
2.09802e-16
5.94875e-17
1.5276e-17
3.42605e-18
5.95866e-19
3.44408e-20
-3.40069e-20
-2.28408e-20
-1.01843e-20
-3.85335e-21
-1.32115e-21
-4.21205e-22
-1.26214e-22
-3.56248e-23
-9.43065e-24
-1.88264e-24
0.93312
0.500023
0.144652
-0.0142317
-0.0417465
-0.0241709
-0.00670973
0.000666507
0.00173599
0.000973132
0.000310063
3.65505e-05
-2.32165e-05
-1.87235e-05
-8.01344e-06
-2.39967e-06
-4.64203e-07
-1.00885e-09
4.96119e-08
2.8742e-08
1.14554e-08
3.68718e-09
9.78977e-10
1.99564e-10
1.91018e-11
-8.42177e-12
-6.73251e-12
-3.09403e-12
-1.15136e-12
-3.74118e-13
-1.08333e-13
-2.77103e-14
-5.94928e-15
-8.72256e-16
4.56019e-17
1.07106e-16
5.79869e-17
2.38354e-17
8.53232e-18
2.77897e-18
8.37056e-19
2.33772e-19
5.99428e-20
1.36871e-20
2.54462e-21
2.46645e-22
-8.50767e-23
-7.14395e-23
-3.37825e-23
-1.35582e-23
1.03542
0.854782
0.49925
0.183256
0.0116761
-0.0378724
-0.0305308
-0.0131129
-0.00264433
0.00074697
0.000941245
0.000468149
0.000146709
2.37177e-05
-4.86038e-06
-5.76084e-06
-2.80387e-06
-9.85682e-07
-2.66408e-07
-4.92971e-08
-6.20042e-10
4.75918e-09
2.83905e-09
1.17433e-09
4.00802e-10
1.17379e-10
2.90797e-11
5.51661e-12
4.02249e-13
-2.96051e-13
-2.11124e-13
-9.49653e-14
-3.5399e-14
-1.16962e-14
-3.49978e-15
-9.47973e-16
-2.27002e-16
-4.44401e-17
-4.93162e-18
1.21684e-18
1.161e-18
5.64687e-19
2.22836e-19
7.83338e-20
2.53671e-20
7.6694e-21
2.17091e-21
5.71675e-22
1.37524e-22
2.08026e-23
1.02771
1.0134
0.817133
0.501714
0.212691
0.0381515
-0.0258789
-0.0290602
-0.015392
-0.0048907
-0.00049176
0.000480514
0.000373679
0.000162162
4.91722e-05
9.29048e-06
-3.41921e-07
-1.27895e-06
-7.19922e-07
-2.85381e-07
-9.10021e-08
-2.34557e-08
-4.32418e-09
-1.28738e-10
3.65268e-10
2.28077e-10
9.7692e-11
3.48447e-11
1.08729e-11
2.98502e-12
6.98028e-13
1.21874e-13
4.57292e-15
-8.94282e-15
-5.67645e-15
-2.48139e-15
-9.19497e-16
-3.05919e-16
-9.32447e-17
-2.6111e-17
-6.63148e-18
-1.46569e-18
-2.46096e-19
-9.24254e-21
1.71286e-20
1.08454e-20
4.77117e-21
1.79921e-21
6.17131e-22
1.85318e-22
1.00752
1.04152
0.994179
0.79411
0.496169
0.222574
0.0530426
-0.0138083
-0.0225832
-0.0134563
-0.00513169
-0.00117099
2.78106e-05
0.000183994
0.000110734
4.46432e-05
1.3662e-05
2.98835e-06
2.26378e-07
-2.01379e-07
-1.46161e-07
-6.57648e-08
-2.37164e-08
-7.22781e-09
-1.83939e-09
-3.50771e-10
-2.10492e-11
2.29361e-11
1.57208e-11
7.04094e-12
2.61931e-12
8.60031e-13
2.53432e-13
6.64627e-14
1.48345e-14
2.38465e-15
-8.33887e-18
-2.3119e-16
-1.35319e-16
-5.78621e-17
-2.13398e-17
-7.13719e-18
-2.2061e-18
-6.33063e-19
-1.67465e-19
-3.98523e-20
-7.96714e-21
-1.0147e-21
1.31742e-22
2.08674e-22
0.99788
1.02453
1.05025
0.973436
0.748775
0.451698
0.199773
0.0523599
-0.00480464
-0.0144707
-0.00945783
-0.00405568
-0.00122957
-0.000209815
3.53996e-05
5.01872e-05
2.70267e-05
1.06738e-05
3.38067e-06
8.38424e-07
1.28639e-07
-1.51884e-08
-2.33792e-08
-1.25398e-08
-5.09172e-09
-1.75146e-09
-5.24194e-10
-1.34429e-10
-2.70996e-11
-2.61741e-12
1.15736e-12
9.52329e-13
4.53459e-13
1.76458e-13
6.06609e-14
1.89003e-14
5.35631e-15
1.35877e-15
2.92329e-16
4.35553e-17
-1.98415e-18
-5.29221e-18
-2.93986e-18
-1.23895e-18
-4.55989e-19
-1.5335e-19
-4.79831e-20
-1.40481e-20
-3.83976e-21
-7.96677e-22
0.996193
1.0068
1.04762
1.04474
0.907186
0.645505
0.363284
0.154362
0.0426324
0.000750597
-0.00758749
-0.00557295
-0.00264658
-0.000950232
-0.000252269
-3.50368e-05
1.05553e-05
1.12135e-05
5.81216e-06
2.31242e-06
7.64433e-07
2.09691e-07
4.35272e-08
3.54652e-09
-2.58614e-09
-1.96708e-09
-9.25281e-10
-3.55968e-10
-1.19637e-10
-3.56995e-11
-9.3292e-12
-2.00243e-12
-2.6548e-13
4.08431e-14
5.0931e-14
2.65005e-14
1.08628e-14
3.90618e-15
1.277e-15
3.83967e-16
1.05863e-16
2.62156e-17
5.48624e-18
7.67462e-19
-6.39756e-20
-1.10358e-19
-5.93847e-20
-2.48233e-20
-9.13807e-21
-2.92864e-21
0.997065
0.998552
1.03214
1.05561
0.976994
0.76657
0.494741
0.258318
0.105971
0.0309228
0.00328287
-0.0031194
-0.00280638
-0.00148562
-0.000605215
-0.00019812
-4.93556e-05
-6.3564e-06
2.16902e-06
2.18886e-06
1.13729e-06
4.62828e-07
1.59938e-07
4.75485e-08
1.17308e-08
2.03062e-09
-2.38659e-11
-2.33969e-10
-1.41449e-10
-6.20797e-11
-2.31909e-11
-7.71918e-12
-2.31639e-12
-6.20104e-13
-1.41473e-13
-2.32662e-14
7.82217e-17
2.35757e-15
1.41201e-15
6.17549e-16
2.32879e-16
7.96169e-17
2.515e-17
7.37484e-18
1.99397e-18
4.85511e-19
9.96998e-20
1.33431e-20
-1.4521e-21
-2.56815e-21
0.99793
0.996663
1.0216
1.04713
0.995014
0.823166
0.576166
0.338383
0.165967
0.0668241
0.0207448
0.00370913
-0.000811591
-0.00119894
-0.000729477
-0.000332601
-0.000124996
-3.91176e-05
-9.59497e-06
-1.31183e-06
3.43173e-07
3.83117e-07
2.05579e-07
8.64612e-08
3.12245e-08
9.9151e-09
2.7405e-09
6.20587e-10
8.79014e-11
-1.23739e-11
-1.70612e-11
-9.22891e-12
-3.89494e-12
-1.43288e-12
-4.76193e-13
-1.44397e-13
-3.96675e-14
-9.56424e-15
-1.82994e-15
-1.55633e-16
8.73128e-17
6.81341e-17
3.2549e-17
1.29589e-17
4.63342e-18
1.53004e-18
4.71677e-19
1.35856e-19
3.62949e-20
7.01675e-21
0.998313
0.996995
1.0174
1.03858
0.993437
0.84163
0.615833
0.387629
0.210587
0.0988327
0.039651
0.0130739
0.00307866
0.00011676
-0.000408385
-0.000312338
-0.000160867
-6.76642e-05
-2.43582e-05
-7.49714e-06
-1.86851e-06
-2.92426e-07
3.84592e-08
6.04289e-08
3.45441e-08
1.51614e-08
5.72387e-09
1.92282e-09
5.77122e-10
1.51322e-10
3.19519e-11
3.62764e-12
-1.15864e-12
-1.10452e-12
-5.62361e-13
-2.32198e-13
-8.48626e-14
-2.83007e-14
-8.69421e-15
-2.4504e-15
-6.20156e-16
-1.32449e-16
-1.878e-17
1.72471e-18
2.89861e-18
1.58572e-18
6.75399e-19
2.5345e-19
8.73867e-20
2.58267e-20
0.998404
0.997544
1.01651
1.03416
0.988623
0.844138
0.630685
0.412389
0.237894
0.121969
0.0556758
0.0224512
0.00779661
0.00216834
0.000354341
-8.0605e-05
-0.000112499
-6.85524e-05
-3.22712e-05
-1.29631e-05
-4.56852e-06
-1.40687e-06
-3.62468e-07
-6.57755e-08
8.79131e-10
8.45831e-09
5.3932e-09
2.50161e-09
9.89504e-10
3.4971e-10
1.11989e-10
3.2328e-11
8.16166e-12
1.63317e-12
1.48287e-13
-8.09408e-14
-6.60199e-14
-3.2522e-14
-1.3283e-14
-4.8511e-15
-1.62867e-15
-5.07547e-16
-1.46592e-16
-3.86897e-17
-8.97394e-18
-1.62212e-18
-9.86377e-20
1.00047e-19
7.02938e-20
3.35392e-20
0.9984
0.99784
1.01663
1.03264
0.98546
0.842459
0.63439
0.422542
0.251971
0.136075
0.066987
0.0300671
0.0122228
0.00442467
0.0013707
0.000323019
2.6288e-05
-2.95244e-05
-2.50974e-05
-1.36248e-05
-6.08349e-06
-2.38064e-06
-8.32315e-07
-2.58994e-07
-6.9457e-08
-1.43648e-08
-1.09131e-09
9.93288e-10
7.75625e-10
3.88002e-10
1.61682e-10
5.99969e-11
2.02962e-11
6.29011e-12
1.76788e-12
4.3512e-13
8.40295e-14
6.38274e-15
-4.88529e-15
-3.71589e-15
-1.80243e-15
-7.3385e-16
-2.68926e-16
-9.10905e-17
-2.88112e-17
-8.51452e-18
-2.33024e-18
-5.76087e-19
-1.20822e-19
-7.57712e-21
0.998384
0.997941
1.01685
1.03234
0.984073
0.84079
0.634435
0.425777
0.258125
0.143493
0.0738628
0.0353358
0.0156893
0.00642872
0.00240343
0.000801225
0.000225606
4.47565e-05
-8.95846e-07
-7.16153e-06
-4.99098e-06
-2.53442e-06
-1.09615e-06
-4.23062e-07
-1.47931e-07
-4.67569e-08
-1.30604e-08
-3.00487e-09
-4.2145e-10
7.82583e-11
1.00353e-10
5.62426e-11
2.49629e-11
9.74227e-12
3.46459e-12
1.13728e-12
3.44652e-13
9.51971e-14
2.30914e-14
4.38826e-15
3.10599e-16
-2.66864e-16
-1.99087e-16
-9.63229e-17
-3.93253e-17
-1.4506e-17
-4.96479e-18
-1.59404e-18
-4.81878e-19
-1.17168e-19
0.998374
0.997962
1.01697
1.03237
0.983628
0.839887
0.633824
0.426412
0.260371
0.14689
0.0775348
0.0385294
0.0180462
0.00795008
0.00327918
0.00125652
0.000441095
0.000137934
3.5859e-05
5.94382e-06
-8.69426e-07
-1.46492e-06
-9.20523e-07
-4.48997e-07
-1.90601e-07
-7.31341e-08
-2.5704e-08
-8.27134e-09
-2.40045e-09
-6.01043e-10
-1.12156e-10
-3.16842e-12
1.09611e-11
7.51045e-12
3.62749e-12
1.49841e-12
5.59779e-13
1.93282e-13
6.21351e-14
1.85528e-14
5.07363e-15
1.22432e-15
2.33256e-16
1.75647e-17
-1.34135e-17
-1.02139e-17
-4.98289e-18
-2.05015e-18
-7.63487e-19
-2.44916e-19
0.998371
0.997961
1.01701
1.03244
0.983537
0.839521
0.633377
0.426333
0.261011
0.148243
0.0792771
0.0402558
0.0194705
0.00896873
0.00392627
0.00162765
0.000635427
0.000231538
7.75104e-05
2.30833e-05
5.63136e-06
7.84512e-07
-2.27727e-07
-2.70878e-07
-1.60642e-07
-7.65195e-08
-3.21659e-08
-1.23361e-08
-4.37126e-09
-1.43301e-09
-4.30508e-10
-1.15269e-10
-2.54418e-11
-3.28476e-12
7.90655e-13
8.93051e-13
4.91152e-13
2.17743e-13
8.57658e-14
3.10775e-14
1.05094e-14
3.33059e-15
9.85475e-16
2.68403e-16
6.49384e-17
1.25972e-17
1.10595e-18
-6.20658e-19
-5.0222e-19
-2.53241e-19
0.99837
0.997958
1.01703
1.03247
0.983539
0.839405
0.633156
0.426172
0.261114
0.148701
0.080014
0.0410973
0.0202478
0.00958247
0.0043537
0.00189549
0.000788537
0.000312172
0.000116905
4.10179e-05
1.32566e-05
3.81074e-06
8.88693e-07
1.07999e-07
-4.50915e-08
-4.66334e-08
-2.68219e-08
-1.26205e-08
-5.28698e-09
-2.0343e-09
-7.28104e-10
-2.43112e-10
-7.53178e-11
-2.12779e-11
-5.2451e-12
-9.82609e-13
-4.0395e-14
8.5912e-14
6.05673e-14
2.96696e-14
1.24432e-14
4.74111e-15
1.68087e-15
5.60132e-16
1.75858e-16
5.17914e-17
1.4114e-17
3.44451e-18
6.90782e-19
1.89724e-20
0.998369
0.997956
1.01703
1.03249
0.983553
0.839379
0.63307
0.426069
0.261087
0.148822
0.0802899
0.0414693
0.0206347
0.00991977
0.00461039
0.00207026
0.000896768
0.000373857
0.00014954
5.71475e-05
2.07368e-05
7.0747e-06
2.22994e-06
6.26376e-07
1.42495e-07
1.62962e-08
-7.66016e-09
-7.58217e-09
-4.31217e-09
-2.02188e-09
-8.48248e-10
-3.28371e-10
-1.18852e-10
-4.03943e-11
-1.28606e-11
-3.79512e-12
-1.01155e-12
-2.27751e-13
-3.34616e-14
4.05008e-15
6.42851e-15
3.72651e-15
1.69942e-15
6.85895e-16
2.55166e-16
8.90525e-17
2.93757e-17
9.17057e-18
2.70193e-18
6.21443e-19
0.998369
0.997955
1.01703
1.03249
0.983562
0.839377
0.633042
0.426021
0.261051
0.14884
0.080379
0.0416183
0.0208115
0.0100905
0.00475223
0.00217486
0.000966615
0.000416667
0.00017387
7.00665e-05
2.71829e-05
1.01099e-05
3.5825e-06
1.19773e-06
3.71324e-07
1.03038e-07
2.33236e-08
2.75199e-09
-1.1524e-09
-1.17201e-09
-6.69879e-10
-3.15321e-10
-1.33026e-10
-5.19269e-11
-1.90218e-11
-6.576e-12
-2.14516e-12
-6.5628e-13
-1.85416e-13
-4.66713e-14
-9.46393e-15
-8.97562e-16
4.81932e-16
4.14508e-16
2.1548e-16
9.36473e-17
3.67697e-17
1.34421e-17
4.64329e-18
1.36603e-18
0.998369
0.997955
1.01703
1.03249
0.983565
0.83938
0.633035
0.426002
0.26103
0.148834
0.0804019
0.0416719
0.0208859
0.0101706
0.00482496
0.0022329
0.00100828
0.000444018
0.000190481
7.94818e-05
3.21966e-05
1.26313e-05
4.78476e-06
1.74287e-06
6.06828e-07
2.00061e-07
6.14318e-08
1.69958e-08
3.89294e-09
5.08009e-10
-1.52139e-10
-1.72475e-10
-1.00696e-10
-4.79223e-11
-2.04072e-11
-8.04865e-12
-2.9861e-12
-1.04939e-12
-3.49896e-13
-1.10353e-13
-3.26211e-14
-8.85571e-15
-2.10407e-15
-3.76081e-16
-8.91479e-18
3.62837e-17
2.45814e-17
1.19256e-17
5.01098e-18
1.81179e-18
0.998369
0.997955
1.01703
1.03249
0.983567
0.839381
0.633034
0.425996
0.26102
0.148827
0.0804051
0.0416888
0.0209146
0.0102055
0.00485979
0.00226297
0.00103146
0.000460275
0.000200996
8.58163e-05
3.57777e-05
1.45425e-05
5.7522e-06
2.20906e-06
8.213e-07
2.94452e-07
1.01225e-07
3.30732e-08
1.01149e-08
2.81025e-09
6.59293e-10
9.80477e-11
-1.64855e-11
-2.40789e-11
-1.46413e-11
-7.09882e-12
-3.06319e-12
-1.22313e-12
-4.59933e-13
-1.64233e-13
-5.58649e-14
-1.80872e-14
-5.54499e-15
-1.59057e-15
-4.161e-16
-9.32139e-17
-1.42261e-17
1.13329e-18
2.31261e-18
1.41304e-18
0.998369
0.997955
1.01703
1.03249
0.983567
0.839382
0.633034
0.425994
0.261017
0.148823
0.0804041
0.0416932
0.0209247
0.0102197
0.00487542
0.0022776
0.00104357
0.000469338
0.000207225
8.97922e-05
3.81553e-05
1.58833e-05
6.46899e-06
2.57388e-06
9.98673e-07
3.77059e-07
1.38153e-07
4.8942e-08
1.6676e-08
5.42086e-09
1.65829e-09
4.65076e-10
1.12549e-10
1.90743e-11
-1.05814e-12
-3.15598e-12
-2.05434e-12
-1.02418e-12
-4.49792e-13
-1.82239e-13
-6.95184e-14
-2.52183e-14
-8.73895e-15
-2.89541e-15
-9.14892e-16
-2.73793e-16
-7.64845e-17
-1.93323e-17
-4.09457e-18
-2.14827e-19
0.998369
0.997955
1.01703
1.03249
0.983567
0.839382
0.633035
0.425994
0.261015
0.148821
0.0804028
0.0416938
0.0209279
0.010225
0.00488201
0.00228433
0.00104954
0.000474105
0.000210701
9.21391e-05
3.9636e-05
1.67629e-05
6.9638e-06
2.83874e-06
1.13409e-06
4.43401e-07
1.69374e-07
6.30855e-08
2.2853e-08
8.02452e-09
2.71813e-09
8.81722e-10
2.70629e-10
7.68701e-11
1.92455e-11
3.66352e-12
1.16808e-13
-3.7922e-13
-2.7674e-13
-1.4365e-13
-6.45589e-14
-2.66129e-14
-1.03114e-14
-3.80046e-15
-1.3404e-15
-4.53426e-16
-1.47021e-16
-4.55187e-17
-1.33709e-17
-3.03497e-18
0.998369
0.997955
1.01703
1.03249
0.983567
0.839383
0.633035
0.425994
0.261015
0.14882
0.0804021
0.0416937
0.0209287
0.0102269
0.00488462
0.00228724
0.00105234
0.000476484
0.00021254
9.34499e-05
4.0507e-05
1.73066e-05
7.28487e-06
3.01894e-06
1.23064e-06
4.92953e-07
1.93807e-07
7.46878e-08
2.81692e-08
1.03786e-08
3.72679e-09
1.30023e-09
4.38852e-10
1.42373e-10
4.39379e-11
1.26624e-11
3.27961e-12
6.88401e-13
6.69872e-14
-3.93769e-14
-3.54452e-14
-1.95215e-14
-9.04394e-15
-3.80653e-15
-1.50056e-15
-5.62196e-16
-2.01706e-16
-6.95511e-17
-2.31023e-17
-6.46621e-18
0.998369
0.997955
1.01703
1.03249
0.983567
0.839383
0.633035
0.425994
0.261015
0.14882
0.0804018
0.0416935
0.0209288
0.0102275
0.00488559
0.00228844
0.00105358
0.000477613
0.000213466
9.41463e-05
4.09937e-05
1.76254e-05
7.48203e-06
3.1347e-06
1.29546e-06
5.27706e-07
2.11701e-07
8.35604e-08
3.24152e-08
1.23435e-08
4.60734e-09
1.68286e-09
6.00224e-10
2.08465e-10
7.0233e-11
2.28239e-11
7.09155e-12
2.0749e-12
5.5493e-13
1.26207e-13
1.8438e-14
-2.86475e-15
-4.23557e-15
-2.55552e-15
-1.23347e-15
-5.32627e-16
-2.14123e-16
-8.1627e-17
-2.98241e-17
-9.4655e-18
0.998369
0.997955
1.01703
1.03249
0.983567
0.839383
0.633035
0.425994
0.261015
0.14882
0.0804017
0.0416933
0.0209288
0.0102276
0.00488592
0.00228891
0.00105411
0.000478125
0.000213911
9.44996e-05
4.12531e-05
1.78035e-05
7.59723e-06
3.20534e-06
1.33672e-06
5.5076e-07
2.24066e-07
8.99442e-08
3.55959e-08
1.3876e-08
5.32263e-09
2.00678e-09
7.42711e-10
2.6941e-10
9.55983e-11
3.31014e-11
1.11463e-11
3.63238e-12
1.13708e-12
3.37725e-13
9.30149e-14
2.25795e-14
4.12762e-15
7.34929e-17
-4.52956e-16
-3.19004e-16
-1.6312e-16
-7.27649e-17
-2.99545e-17
-1.07886e-17
0.998369
0.997955
1.01703
1.03249
0.983567
0.839383
0.633035
0.425994
0.261015
0.14882
0.0804016
0.0416933
0.0209288
0.0102276
0.00488603
0.00228908
0.00105432
0.000478347
0.000214116
9.46713e-05
4.13855e-05
1.78988e-05
7.66157e-06
3.24648e-06
1.36175e-06
5.6531e-07
2.32179e-07
9.42961e-08
3.78479e-08
1.50027e-08
5.86872e-09
2.26361e-09
8.60086e-10
3.21599e-10
1.18197e-10
4.26393e-11
1.50721e-11
5.20877e-12
1.75473e-12
5.73831e-13
1.81029e-13
5.45461e-14
1.54232e-14
3.94777e-15
8.32326e-16
9.10874e-17
-3.84476e-17
-3.72553e-17
-2.07761e-17
-9.32699e-18
0.998369
0.997955
1.01703
1.03249
0.983567
0.839383
0.633035
0.425994
0.261015
0.14882
0.0804016
0.0416932
0.0209288
0.0102276
0.00488606
0.00228914
0.0010544
0.000478439
0.000214207
9.47514e-05
4.14505e-05
1.79476e-05
7.69604e-06
3.26944e-06
1.37628e-06
5.74087e-07
2.37259e-07
9.71227e-08
3.93642e-08
1.57888e-08
6.26349e-09
2.45594e-09
9.51149e-10
3.63555e-10
1.3703e-10
5.08833e-11
1.85943e-11
6.67853e-12
2.354e-12
8.12661e-13
2.74073e-13
8.99762e-14
2.86048e-14
8.73578e-15
2.52824e-15
6.75743e-16
1.5717e-16
2.59866e-17
-1.12192e-18
-4.39777e-18
0.998369
0.997955
1.01703
1.03249
0.983567
0.839383
0.633035
0.425994
0.261015
0.14882
0.0804016
0.0416932
0.0209288
0.0102276
0.00488606
0.00228916
0.00105443
0.000478476
0.000214245
9.47874e-05
4.14811e-05
1.79718e-05
7.71381e-06
3.28177e-06
1.38439e-06
5.79168e-07
2.40307e-07
9.88797e-08
4.03399e-08
1.63122e-08
6.53529e-09
2.59286e-09
1.01816e-09
3.95472e-10
1.51842e-10
5.7588e-11
2.15577e-11
7.95846e-12
2.89459e-12
1.03605e-12
3.64427e-13
1.25757e-13
4.24783e-14
1.40023e-14
4.4849e-15
1.38678e-15
4.09642e-16
1.13446e-16
2.84162e-17
4.10228e-18
0.998369
0.997955
1.01703
1.03249
0.983567
0.839383
0.633035
0.425994
0.261015
0.14882
0.0804016
0.0416932
0.0209287
0.0102276
0.00488606
0.00228917
0.00105444
0.00047849
0.000214261
9.48031e-05
4.14951e-05
1.79833e-05
7.72265e-06
3.28815e-06
1.38875e-06
5.81999e-07
2.42067e-07
9.9929e-08
4.09423e-08
1.66461e-08
6.71435e-09
2.68597e-09
1.0652e-09
4.18588e-10
1.6291e-10
6.27575e-11
2.39155e-11
9.00959e-12
3.353e-12
1.23175e-12
4.46264e-13
1.59291e-13
5.59491e-14
1.93079e-14
6.53397e-15
2.1627e-15
6.97643e-16
2.18172e-16
6.57477e-17
1.57079e-17
0.998369
0.997955
1.01703
1.03249
0.983567
0.839383
0.633035
0.425994
0.261015
0.14882
0.0804016
0.0416932
0.0209287
0.0102276
0.00488606
0.00228917
0.00105444
0.000478495
0.000214267
9.48096e-05
4.15013e-05
1.79886e-05
7.72691e-06
3.29134e-06
1.39101e-06
5.83522e-07
2.43046e-07
1.00533e-07
4.13004e-08
1.68509e-08
6.82767e-09
2.74673e-09
1.09683e-09
4.34604e-10
1.70809e-10
6.65578e-11
2.57008e-11
9.8294e-12
3.72132e-12
1.39378e-12
5.16108e-13
1.88809e-13
6.81857e-14
2.42859e-14
8.52175e-15
2.942e-15
9.97615e-16
3.31534e-16
1.07855e-16
2.95309e-17
0.998369
0.997955
1.01703
1.03249
0.983567
0.839383
0.633035
0.425994
0.261015
0.14882
0.0804016
0.0416932
0.0209287
0.0102276
0.00488606
0.00228917
0.00105445
0.000478497
0.00021427
9.48122e-05
4.15039e-05
1.7991e-05
7.72889e-06
3.29288e-06
1.39214e-06
5.84315e-07
2.43573e-07
1.00869e-07
4.15059e-08
1.69722e-08
6.89677e-09
2.78489e-09
1.11728e-09
4.45261e-10
1.76217e-10
6.92341e-11
2.69938e-11
1.044e-11
4.00342e-12
1.52141e-12
5.72697e-13
2.13415e-13
7.86841e-14
2.86835e-14
1.0331e-14
3.67336e-15
1.28816e-15
4.44989e-16
1.5146e-16
4.44755e-17
0.998369
0.997955
1.01703
1.03249
0.983567
0.839383
0.633035
0.425994
0.261015
0.14882
0.0804016
0.0416932
0.0209287
0.0102276
0.00488606
0.00228917
0.00105445
0.000478497
0.00021427
9.48133e-05
4.1505e-05
1.7992e-05
7.72978e-06
3.29361e-06
1.3927e-06
5.84716e-07
2.43849e-07
1.0105e-07
4.16201e-08
1.70416e-08
6.9375e-09
2.80803e-09
1.13004e-09
4.52096e-10
1.79782e-10
7.10461e-11
2.78931e-11
1.08761e-11
4.21035e-12
1.61755e-12
6.1647e-13
2.32961e-13
8.72505e-14
3.23701e-14
1.18899e-14
4.32125e-15
1.55295e-15
5.51428e-16
1.93608e-16
5.94549e-17
0.998369
0.997955
1.01703
1.03249
0.983567
0.839383
0.633035
0.425994
0.261015
0.14882
0.0804016
0.0416932
0.0209287
0.0102276
0.00488606
0.00228917
0.00105445
0.000478497
0.000214271
9.48137e-05
4.15054e-05
1.79924e-05
7.73018e-06
3.29394e-06
1.39296e-06
5.84912e-07
2.43988e-07
1.01144e-07
4.16816e-08
1.70801e-08
6.96075e-09
2.82162e-09
1.13773e-09
4.56331e-10
1.8205e-10
7.22296e-11
2.84958e-11
1.1176e-11
4.35629e-12
1.68709e-12
6.48941e-13
2.47831e-13
9.3934e-14
3.53203e-14
1.31695e-14
4.86696e-15
1.78185e-15
6.45907e-16
2.32039e-16
7.35571e-17
0.998369
0.997955
1.01703
1.03249
0.983567
0.839383
0.633035
0.425994
0.261015
0.14882
0.0804016
0.0416932
0.0209287
0.0102276
0.00488606
0.00228917
0.00105445
0.000478497
0.000214271
9.48138e-05
4.15056e-05
1.79926e-05
7.73035e-06
3.29409e-06
1.39308e-06
5.85006e-07
2.44057e-07
1.01192e-07
4.17138e-08
1.71008e-08
6.97364e-09
2.82935e-09
1.14223e-09
4.58874e-10
1.83446e-10
7.29772e-11
2.88861e-11
1.13751e-11
4.45557e-12
1.73556e-12
6.72125e-13
2.58707e-13
9.8941e-14
3.75841e-14
1.41753e-14
5.30638e-15
1.97071e-15
7.25794e-16
2.6535e-16
8.61384e-17
0.998369
0.997955
1.01703
1.03249
0.983567
0.839383
0.633035
0.425994
0.261015
0.14882
0.0804016
0.0416932
0.0209287
0.0102276
0.00488606
0.00228917
0.00105445
0.000478497
0.000214271
9.48138e-05
4.15057e-05
1.79927e-05
7.73042e-06
3.29415e-06
1.39314e-06
5.85049e-07
2.4409e-07
1.01216e-07
4.17302e-08
1.71117e-08
6.98058e-09
2.83364e-09
1.14479e-09
4.60355e-10
1.84281e-10
7.3435e-11
2.9131e-11
1.1503e-11
4.52089e-12
1.7682e-12
6.88108e-13
2.6638e-13
1.02555e-13
3.92561e-14
1.49355e-14
5.64615e-15
2.12013e-15
7.90469e-16
2.9295e-16
9.68442e-17
0.998369
0.997955
1.01703
1.03249
0.983567
0.839383
0.633035
0.425994
0.261015
0.14882
0.0804016
0.0416932
0.0209287
0.0102276
0.00488606
0.00228917
0.00105445
0.000478497
0.000214271
9.48139e-05
4.15057e-05
1.79927e-05
7.73044e-06
3.29418e-06
1.39316e-06
5.85069e-07
2.44105e-07
1.01227e-07
4.17384e-08
1.71172e-08
6.98423e-09
2.83595e-09
1.1462e-09
4.61195e-10
1.84766e-10
7.37074e-11
2.92801e-11
1.15827e-11
4.56255e-12
1.7895e-12
6.98773e-13
2.71615e-13
1.05077e-13
4.04485e-14
1.54895e-14
5.89929e-15
2.23391e-15
8.40811e-16
3.14909e-16
1.05576e-16
0.998369
0.997955
1.01703
1.03249
0.983567
0.839383
0.633035
0.425994
0.261015
0.14882
0.0804016
0.0416932
0.0209287
0.0102276
0.00488606
0.00228917
0.00105445
0.000478497
0.000214271
9.48139e-05
4.15057e-05
1.79927e-05
7.73045e-06
3.29419e-06
1.39317e-06
5.85078e-07
2.44112e-07
1.01233e-07
4.17424e-08
1.712e-08
6.9861e-09
2.83716e-09
1.14697e-09
4.61659e-10
1.8504e-10
7.3865e-11
2.93685e-11
1.1631e-11
4.58837e-12
1.803e-12
7.05678e-13
2.75078e-13
1.06781e-13
4.12717e-14
1.58802e-14
6.08157e-15
2.31758e-15
8.78609e-16
3.31745e-16
1.1243e-16
0.998369
0.997955
1.01703
1.03249
0.983567
0.839383
0.633035
0.425994
0.261015
0.14882
0.0804016
0.0416932
0.0209287
0.0102276
0.00488606
0.00228917
0.00105445
0.000478497
0.000214271
9.48139e-05
4.15057e-05
1.79927e-05
7.73046e-06
3.2942e-06
1.39318e-06
5.85082e-07
2.44115e-07
1.01235e-07
4.17442e-08
1.71214e-08
6.98703e-09
2.83778e-09
1.14737e-09
4.61909e-10
1.85191e-10
7.3954e-11
2.94195e-11
1.16595e-11
4.60393e-12
1.81131e-12
7.10023e-13
2.77304e-13
1.07899e-13
4.1823e-14
1.61472e-14
6.20873e-15
2.37713e-15
9.06062e-16
3.44221e-16
1.17623e-16
0.998369
0.997955
1.01703
1.03249
0.983567
0.839383
0.633035
0.425994
0.261015
0.14882
0.0804016
0.0416932
0.0209287
0.0102276
0.00488606
0.00228917
0.00105445
0.000478497
0.000214271
9.48139e-05
4.15057e-05
1.79927e-05
7.73046e-06
3.2942e-06
1.39318e-06
5.85083e-07
2.44117e-07
1.01237e-07
4.17451e-08
1.7122e-08
6.98749e-09
2.83809e-09
1.14757e-09
4.6204e-10
1.85273e-10
7.4003e-11
2.94482e-11
1.16759e-11
4.61308e-12
1.8163e-12
7.12686e-13
2.78696e-13
1.08612e-13
4.2182e-14
1.63246e-14
6.29486e-15
2.41827e-15
9.25396e-16
3.53179e-16
1.21432e-16
0.998369
0.997955
1.01703
1.03249
0.983567
0.839383
0.633035
0.425994
0.261015
0.14882
0.0804016
0.0416932
0.0209287
0.0102276
0.00488606
0.00228917
0.00105445
0.000478497
0.000214271
9.48139e-05
4.15057e-05
1.79927e-05
7.73046e-06
3.2942e-06
1.39318e-06
5.85084e-07
2.44117e-07
1.01237e-07
4.17455e-08
1.71223e-08
6.98771e-09
2.83825e-09
1.14768e-09
4.62108e-10
1.85315e-10
7.40294e-11
2.9464e-11
1.16852e-11
4.61834e-12
1.81922e-12
7.14278e-13
2.79545e-13
1.09056e-13
4.24096e-14
1.64393e-14
6.35162e-15
2.4459e-15
9.38627e-16
3.59424e-16
1.24143e-16
0.998369
0.997955
1.01703
1.03249
0.983567
0.839383
0.633035
0.425994
0.261015
0.14882
0.0804016
0.0416932
0.0209287
0.0102276
0.00488606
0.00228917
0.00105445
0.000478497
0.000214271
9.48139e-05
4.15057e-05
1.79927e-05
7.73046e-06
3.2942e-06
1.39318e-06
5.85084e-07
2.44118e-07
1.01237e-07
4.17457e-08
1.71225e-08
6.98781e-09
2.83832e-09
1.14773e-09
4.62142e-10
1.85338e-10
7.40433e-11
2.94725e-11
1.16902e-11
4.62128e-12
1.82089e-12
7.15207e-13
2.8005e-13
1.09326e-13
4.25504e-14
1.65115e-14
6.38806e-15
2.46396e-15
9.47439e-16
3.6366e-16
1.26019e-16
0.998369
0.997955
1.01703
1.03249
0.983567
0.839383
0.633035
0.425994
0.261015
0.14882
0.0804016
0.0416932
0.0209287
0.0102276
0.00488606
0.00228917
0.00105445
0.000478497
0.000214271
9.48139e-05
4.15057e-05
1.79927e-05
7.73046e-06
3.2942e-06
1.39318e-06
5.85084e-07
2.44118e-07
1.01237e-07
4.17458e-08
1.71225e-08
6.98786e-09
2.83835e-09
1.14775e-09
4.62159e-10
1.85349e-10
7.40505e-11
2.9477e-11
1.1693e-11
4.6229e-12
1.82183e-12
7.15737e-13
2.80344e-13
1.09485e-13
4.26354e-14
1.6556e-14
6.41088e-15
2.47549e-15
9.53162e-16
3.6646e-16
1.27283e-16
0.998369
0.997955
1.01703
1.03249
0.983567
0.839383
0.633035
0.425994
0.261015
0.14882
0.0804016
0.0416932
0.0209287
0.0102276
0.00488606
0.00228917
0.00105445
0.000478497
0.000214271
9.48139e-05
4.15057e-05
1.79927e-05
7.73046e-06
3.2942e-06
1.39318e-06
5.85084e-07
2.44118e-07
1.01237e-07
4.17458e-08
1.71225e-08
6.98788e-09
2.83837e-09
1.14776e-09
4.62167e-10
1.85354e-10
7.40541e-11
2.94793e-11
1.16944e-11
4.62377e-12
1.82234e-12
7.16033e-13
2.80511e-13
1.09578e-13
4.26856e-14
1.65827e-14
6.42486e-15
2.48267e-15
9.56791e-16
3.68267e-16
1.28113e-16
0.998369
0.997955
1.01703
1.03249
0.983567
0.839383
0.633035
0.425994
0.261015
0.14882
0.0804016
0.0416932
0.0209287
0.0102276
0.00488606
0.00228917
0.00105445
0.000478497
0.000214271
9.48139e-05
4.15057e-05
1.79927e-05
7.73046e-06
3.2942e-06
1.39318e-06
5.85084e-07
2.44118e-07
1.01237e-07
4.17458e-08
1.71226e-08
6.98789e-09
2.83838e-09
1.14777e-09
4.62171e-10
1.85357e-10
7.40559e-11
2.94805e-11
1.16951e-11
4.62422e-12
1.82262e-12
7.16195e-13
2.80605e-13
1.0963e-13
4.27147e-14
1.65985e-14
6.43323e-15
2.48704e-15
9.5904e-16
3.69405e-16
1.28647e-16
0.998369
0.997955
1.01703
1.03249
0.983567
0.839383
0.633035
0.425994
0.261015
0.14882
0.0804016
0.0416932
0.0209287
0.0102276
0.00488606
0.00228917
0.00105445
0.000478497
0.000214271
9.48139e-05
4.15057e-05
1.79927e-05
7.73046e-06
3.2942e-06
1.39318e-06
5.85084e-07
2.44118e-07
1.01237e-07
4.17458e-08
1.71226e-08
6.98789e-09
2.83838e-09
1.14777e-09
4.62173e-10
1.85358e-10
7.40568e-11
2.9481e-11
1.16955e-11
4.62446e-12
1.82276e-12
7.16283e-13
2.80656e-13
1.0966e-13
4.27311e-14
1.66075e-14
6.43814e-15
2.48965e-15
9.60404e-16
3.70107e-16
1.28981e-16
0.998369
0.997955
1.01703
1.03249
0.983567
0.839383
0.633035
0.425994
0.261015
0.14882
0.0804016
0.0416932
0.0209287
0.0102276
0.00488606
0.00228917
0.00105445
0.000478497
0.000214271
9.48139e-05
4.15057e-05
1.79927e-05
7.73046e-06
3.2942e-06
1.39318e-06
5.85084e-07
2.44118e-07
1.01237e-07
4.17458e-08
1.71226e-08
6.9879e-09
2.83838e-09
1.14777e-09
4.62174e-10
1.85359e-10
7.40572e-11
2.94813e-11
1.16957e-11
4.62458e-12
1.82284e-12
7.16328e-13
2.80683e-13
1.09676e-13
4.27403e-14
1.66127e-14
6.44096e-15
2.49118e-15
9.61215e-16
3.70531e-16
1.29187e-16
0.998369
0.997955
1.01703
1.03249
0.983567
0.839383
0.633035
0.425994
0.261015
0.14882
0.0804016
0.0416932
0.0209287
0.0102276
0.00488606
0.00228917
0.00105445
0.000478497
0.000214271
9.48139e-05
4.15057e-05
1.79927e-05
7.73046e-06
3.2942e-06
1.39318e-06
5.85084e-07
2.44118e-07
1.01237e-07
4.17458e-08
1.71226e-08
6.9879e-09
2.83838e-09
1.14777e-09
4.62174e-10
1.85359e-10
7.40574e-11
2.94815e-11
1.16958e-11
4.62464e-12
1.82288e-12
7.16352e-13
2.80698e-13
1.09684e-13
4.27453e-14
1.66155e-14
6.44256e-15
2.49205e-15
9.61687e-16
3.70783e-16
1.29311e-16
0.998369
0.997955
1.01703
1.03249
0.983567
0.839383
0.633035
0.425994
0.261015
0.14882
0.0804016
0.0416932
0.0209287
0.0102276
0.00488606
0.00228917
0.00105445
0.000478497
0.000214271
9.48139e-05
4.15057e-05
1.79927e-05
7.73046e-06
3.2942e-06
1.39318e-06
5.85084e-07
2.44118e-07
1.01237e-07
4.17458e-08
1.71226e-08
6.9879e-09
2.83838e-09
1.14777e-09
4.62174e-10
1.85359e-10
7.40575e-11
2.94815e-11
1.16958e-11
4.62467e-12
1.8229e-12
7.16364e-13
2.80705e-13
1.09689e-13
4.2748e-14
1.66171e-14
6.44344e-15
2.49255e-15
9.61957e-16
3.70929e-16
1.29384e-16
0.998369
0.997955
1.01703
1.03249
0.983567
0.839383
0.633035
0.425994
0.261015
0.14882
0.0804016
0.0416932
0.0209287
0.0102276
0.00488606
0.00228917
0.00105445
0.000478497
0.000214271
9.48139e-05
4.15057e-05
1.79927e-05
7.73046e-06
3.2942e-06
1.39318e-06
5.85084e-07
2.44118e-07
1.01237e-07
4.17458e-08
1.71226e-08
6.9879e-09
2.83838e-09
1.14777e-09
4.62174e-10
1.85359e-10
7.40575e-11
2.94816e-11
1.16959e-11
4.62469e-12
1.82291e-12
7.1637e-13
2.80709e-13
1.09691e-13
4.27494e-14
1.66179e-14
6.44392e-15
2.49282e-15
9.62109e-16
3.71012e-16
1.29427e-16
0.998369
0.997955
1.01703
1.03249
0.983567
0.839383
0.633035
0.425994
0.261015
0.14882
0.0804016
0.0416932
0.0209287
0.0102276
0.00488606
0.00228917
0.00105445
0.000478497
0.000214271
9.48139e-05
4.15057e-05
1.79927e-05
7.73046e-06
3.2942e-06
1.39318e-06
5.85084e-07
2.44118e-07
1.01237e-07
4.17458e-08
1.71226e-08
6.9879e-09
2.83838e-09
1.14777e-09
4.62174e-10
1.85359e-10
7.40576e-11
2.94816e-11
1.16959e-11
4.62469e-12
1.82291e-12
7.16374e-13
2.80711e-13
1.09692e-13
4.27501e-14
1.66183e-14
6.44419e-15
2.49298e-15
9.62198e-16
3.71061e-16
1.29452e-16
)
;

boundaryField
{
    upperWall
    {
        type            zeroGradient;
    }
    outlet
    {
        type            zeroGradient;
    }
    inlet
    {
        type            fixedValue;
        value           uniform 1;
    }
    lowerWall
    {
        type            fixedValue;
        value           uniform 0;
    }
    frontAndBack
    {
        type            empty;
    }
}


// ************************************************************************* //
