/*--------------------------------*- C++ -*----------------------------------*\
  =========                 |
  \\      /  F ield         | OpenFOAM: The Open Source CFD Toolbox
   \\    /   O peration     | Website:  https://openfoam.org
    \\  /    A nd           | Version:  7
     \\/     M anipulation  |
\*---------------------------------------------------------------------------*/
FoamFile
{
    version     2.0;
    format      ascii;
    class       volScalarField;
    location    "0.15";
    object      T;
}
// * * * * * * * * * * * * * * * * * * * * * * * * * * * * * * * * * * * * * //

dimensions      [0 0 0 1 0 0 0];

internalField   nonuniform List<scalar> 
5936
(
0.509335
0.913078
0.998914
0.982336
1.00596
1.01633
1.00237
1.00787
1.00059
1.00196
1.00025
1.00061
1.00025
1.00057
1.00026
1.00065
1.00028
1.00069
1.00026
1.00072
1.00028
1.00076
1.0003
1.00076
1.00029
1.00078
1.00027
1.00079
1.00033
1.00079
1.0003
1.00078
1.00028
1.00076
1.00032
1.00076
1.00027
1.00076
1.00033
1.00076
1.0003
1.00078
1.00027
1.00077
1.00031
1.00079
1.0003
1.00083
1.00033
1.00081
1.00032
1.00074
1.00024
1.00069
1.00026
1.00072
1.0003
1.00077
1.00029
1.00079
1.00027
1.00079
1.00034
1.0008
1.0003
1.00078
1.00028
1.00076
1.00031
1.00076
1.00024
1.00075
1.00027
1.00073
1.00031
1.00081
1.00032
1.00086
1.00035
1.00082
1.00032
1.00079
1.00032
1.00078
1.00034
1.00076
1.0003
1.00076
1.00024
1.00072
1.00034
1.00076
1.00049
1.00092
1.00068
1.00099
1.00094
1.00132
1.00095
0.116276
-0.00285685
-0.000259646
4.36869e-05
4.38487e-06
5.49771e-08
-6.07493e-09
-2.53769e-10
-5.75079e-13
2.35678e-13
9.74471e-15
1.87611e-16
7.96229e-19
-6.68273e-20
-2.11125e-21
-2.92134e-23
-4.33277e-26
7.70149e-27
2.00418e-28
2.59521e-30
1.2042e-32
-3.0998e-34
-8.10244e-36
-1.04285e-37
1.37812e-55
-1.07841e-39
1.33327e-37
2.55195e-35
3.90827e-35
-2.51758e-32
1.05176e-31
-8.29893e-30
1.16144e-28
6.88366e-28
-8.48408e-27
-2.51959e-26
-5.23655e-24
-1.10149e-23
-1.47784e-22
-7.05434e-23
-6.84947e-22
1.6452e-21
5.2087e-23
4.77815e-20
9.11358e-20
1.19782e-19
4.45456e-19
5.8363e-19
3.95418e-19
3.26926e-19
0.990602
0.994548
1.01609
1.00168
1.03423
1.0291
0.981619
1.00354
0.825714
0.875931
0.626947
0.688615
0.431561
0.488756
0.275255
0.318284
0.156129
0.186925
0.083893
0.102114
0.0436713
0.0537295
0.0219852
0.0273668
0.0104249
0.0132173
0.00489088
0.00621962
0.00221245
0.00284374
0.000957941
0.00124643
0.000409917
0.000535676
0.000165611
0.000220079
6.64434e-05
8.81546e-05
2.73733e-05
3.607e-05
1.03253e-05
1.3862e-05
3.91579e-06
5.25991e-06
1.43956e-06
1.95476e-06
5.07935e-07
6.93516e-07
1.90045e-07
2.5689e-07
6.68186e-08
9.16351e-08
2.32483e-08
3.19726e-08
8.15209e-09
1.11927e-08
2.73749e-09
3.79635e-09
9.27934e-10
1.28606e-09
3.15096e-10
4.35287e-10
1.05088e-10
1.45825e-10
3.40162e-11
4.748e-11
1.11112e-11
1.55156e-11
3.44685e-12
4.83993e-12
1.10958e-12
1.55105e-12
3.50592e-13
4.92826e-13
1.05594e-13
1.49164e-13
3.29841e-14
4.64273e-14
9.83305e-15
1.39952e-14
2.89052e-15
4.11028e-15
8.92991e-16
1.2672e-15
2.62545e-16
3.76303e-16
8.0226e-17
1.14972e-16
2.35829e-17
3.46285e-17
7.43213e-18
1.11129e-17
2.84176e-18
4.35678e-18
1.05224e-18
4.89224e-19
1.62257e-18
-2.24549e-39
4.42164e-19
0.0135463
-0.00152072
3.98892e-05
1.68518e-05
7.37436e-07
-1.18164e-08
-1.5041e-09
-2.84659e-11
6.99627e-13
5.46606e-14
1.45507e-15
1.86516e-17
-1.91206e-19
-1.33579e-20
-2.76215e-22
-2.29609e-24
3.17968e-26
1.34987e-27
2.48191e-29
2.21439e-31
-6.3531e-34
-5.70973e-35
-9.5998e-37
-0.00102357
-1.16021e-38
6.76616e-19
-4.59769e-38
-1.60792e-36
-1.84121e-35
-4.46196e-34
6.22643e-32
1.37543e-30
1.93345e-29
-8.90437e-28
3.64441e-27
3.21639e-26
8.50631e-25
1.06217e-23
3.36928e-23
1.69994e-22
3.73112e-22
1.39028e-21
-2.1252e-21
1.65407e-20
1.07068e-19
4.86983e-20
2.21428e-19
5.66642e-19
5.43826e-19
0.000145897
0.066729
1.66245e-05
0.457341
7.90292e-05
6.04959e-05
3.27655e-06
-2.80154e-08
-6.19181e-09
-1.49773e-10
2.0746e-12
2.28084e-13
6.94693e-15
1.01754e-16
-5.44863e-19
-5.97183e-20
-1.40231e-21
-1.39078e-23
9.74372e-26
6.48469e-27
1.31434e-28
1.29753e-30
-5.68929e-35
-2.78794e-34
-5.17295e-36
-5.69964e-38
-1.68941e-36
-1.45019e-35
-8.69166e-34
9.13006e-32
1.78092e-30
2.28996e-29
-1.31174e-27
4.69523e-27
4.43839e-26
1.11084e-24
1.50255e-23
4.5451e-23
2.45485e-22
5.27262e-22
2.07088e-21
-2.94424e-21
2.65512e-20
1.64448e-19
8.11585e-20
3.49453e-19
8.62497e-19
8.19849e-19
-6.46572e-38
3.2628e-07
-2.14903e-08
-1.1673e-09
-8.92447e-12
9.28369e-13
4.47727e-14
9.10119e-16
6.49203e-18
-2.68025e-19
-9.98954e-21
-1.59774e-22
-5.9293e-25
3.59972e-26
9.85773e-28
1.44509e-29
8.61617e-32
-1.30091e-33
-4.1247e-35
-5.54601e-37
3.48159e-35
-5.82287e-35
-3.56708e-32
1.93373e-31
-1.07477e-29
1.6821e-28
1.14476e-27
-9.70403e-27
-2.24786e-26
-7.34033e-24
-1.53186e-23
-2.13603e-22
-8.77118e-23
-9.4654e-22
2.4339e-21
8.38238e-22
7.56608e-20
1.41652e-19
1.89762e-19
6.85574e-19
8.89196e-19
6.26816e-19
-0.0051277
-0.00518978
1.95567e-37
0.596824
-0.00151948
0.957934
1.00198
0.983859
1.0034
1.00518
1.00002
1.00037
0.998339
0.99594
0.998129
0.994439
0.998153
0.994628
0.998222
0.994716
0.998285
0.994997
0.998322
0.995106
0.998315
0.99492
0.99843
0.99505
0.998272
0.995182
0.998266
0.994914
0.998376
0.99501
0.998213
0.995068
0.998412
0.994916
0.998263
0.995201
0.998219
0.994893
0.998329
0.994746
0.998245
0.995092
0.998186
0.994703
0.998152
0.994907
0.998163
0.994992
0.998328
0.994795
0.998448
0.995218
0.99839
0.995221
0.998341
0.994959
0.998442
0.995067
0.998281
0.995196
0.99827
0.994922
0.998383
0.995013
0.998246
0.995079
0.998473
0.994973
0.99851
0.995402
0.998363
0.995055
0.998295
0.995034
0.998194
0.995108
0.998123
0.994744
0.998135
0.994808
0.998057
0.99502
0.998038
0.99471
0.998361
0.995163
0.998233
0.995299
0.997702
0.994767
0.99706
0.994851
0.995281
0.993252
0.994148
4.33989e-37
0.00116086
-5.67762e-05
0.261296
6.53627e-06
5.32609e-07
6.1146e-09
-6.38304e-10
-2.9244e-11
-4.58713e-13
7.69585e-15
5.48026e-16
1.33016e-17
1.09642e-19
-2.74699e-21
-1.07203e-22
-1.90704e-24
-1.28504e-26
1.9883e-28
8.16277e-30
1.28674e-31
7.63138e-34
-9.99217e-36
-2.80743e-37
5.82962e-35
-0.00328734
-0.00503798
-0.0039209
-7.19087e-39
1.30501e-18
2.19885e-18
2.35112e-06
6.42293e-06
1.83348e-06
0.532792
-5.38024e-34
-5.84073e-32
4.72856e-31
-1.67577e-29
2.50018e-28
3.0837e-27
-1.21478e-26
-7.97668e-27
-1.33456e-23
-3.04799e-23
-4.12487e-22
-1.90208e-22
-1.71758e-21
4.04408e-21
6.45005e-21
1.6239e-19
2.49387e-19
4.10188e-19
1.39483e-18
1.67622e-18
1.03451e-18
2.08213e-18
0.0510761
0.189081
0.0215935
-0.00040947
-0.00135679
-0.000278153
5.67185e-06
1.28901e-05
1.01243
1.00034
1.0292
1.03294
0.977759
1.01603
0.823822
0.895056
0.632989
0.712716
0.44014
0.515862
0.276653
0.331323
0.159294
0.196851
0.0860646
0.108208
0.0453149
0.0575478
0.0226736
0.0290467
0.0111153
0.0144225
0.00519635
0.0068239
0.00233153
0.00308218
0.00104168
0.00138376
0.000437566
0.000585471
0.000181229
0.000243987
7.35021e-05
0.000100074
2.85676e-05
3.88992e-05
1.1067e-05
1.52518e-05
4.23749e-06
5.8181e-06
1.57138e-06
2.16797e-06
5.63659e-07
7.89969e-07
2.0776e-07
2.87081e-07
7.38656e-08
1.02818e-07
2.66647e-08
3.719e-08
9.13311e-09
1.28205e-08
3.04543e-09
4.28275e-09
1.0805e-09
1.51025e-09
3.56722e-10
5.05991e-10
1.16364e-10
1.64579e-10
3.9493e-11
5.5795e-11
1.26303e-11
1.79099e-11
3.95455e-12
5.66468e-12
1.28619e-12
1.81933e-12
4.04517e-13
5.74694e-13
1.2411e-13
1.7857e-13
3.86558e-14
5.50831e-14
1.15889e-14
1.6593e-14
3.49538e-15
5.04303e-15
1.05286e-15
1.50322e-15
3.15984e-16
4.53671e-16
1.01001e-16
1.43817e-16
3.25968e-17
4.63794e-17
1.2485e-17
1.80418e-17
0.780611
-1.44526e-37
0.830143
6.07496e-37
4.74136e-29
3.8219e-29
-1.70691e-05
-1.34041e-37
-8.04019e-38
4.60979e-28
8.21264e-08
-1.19269e-09
-1.64332e-10
-4.18974e-12
-1.74993e-14
2.66664e-15
9.34329e-17
1.46471e-18
-2.25474e-21
-6.63381e-22
-1.53916e-23
-1.81396e-25
-5.24386e-29
4.88686e-29
1.10349e-30
1.18187e-32
-4.26383e-37
-2.17442e-36
8.93778e-35
3.79493e-30
2.35679e-30
-4.26537e-33
-3.40061e-33
-3.09583e-35
-9.22772e-32
-6.53817e-36
1.98973e-31
-2.50345e-29
3.36397e-07
-2.54998e-27
7.14659e-27
8.59301e-26
1.49416e-24
2.86851e-23
7.41126e-23
5.40017e-22
9.91324e-22
4.5043e-21
-5.54829e-21
6.18119e-20
3.24599e-19
1.52825e-19
7.35888e-19
1.62658e-18
1.52627e-18
-1.72669e-09
-8.00919e-21
6.60292e-19
-1.30658e-36
5.8257e-17
5.51084e-18
2.11258e-15
2.44943e-18
2.03767e-18
5.85872e-19
3.72995e-19
2.32642e-19
7.66912e-21
6.22506e-21
-2.52893e-21
-2.78227e-22
-6.063e-22
-4.40687e-23
-2.00478e-23
-1.48679e-36
-3.34872e-35
4.85783e-33
6.20415e-31
3.48507e-29
5.94366e-28
-7.63179e-26
-8.89934e-24
-4.8035e-22
2.17257e-18
2.40621e-18
1.06629e-18
2.23403e-19
4.74812e-19
8.64893e-20
-8.03242e-21
6.45571e-21
1.47092e-21
7.8422e-22
1.18276e-22
4.10136e-23
2.47821e-24
1.18026e-25
1.04348e-26
2.77852e-31
-9.33415e-36
1.55438e-34
6.42415e-32
5.11498e-30
1.86373e-28
-3.18326e-27
-9.98208e-25
-6.84718e-23
-2.46976e-21
2.18989e-20
7.33787e-18
3.75276e-16
8.32466e-15
-1.8159e-13
-1.82332e-11
-5.64784e-10
-7.32734e-10
-3.88633e-27
1.19538e-14
-2.31753e-12
-1.20139e-10
3.95262e-08
-8.01566e-34
-1.44877e-26
7.09955e-31
-1.59717e-26
4.19064e-27
-3.31765e-05
7.49089e-29
0.989948
1.00203
1.00396
1.00114
1.01058
0.998777
1.00804
0.998062
1.00526
0.997575
1.00391
0.997118
1.0028
0.996901
1.00215
0.996883
1.0021
0.996823
1.00194
0.996958
1.00187
0.996736
1.00216
0.996852
1.00191
0.997137
1.00218
0.996593
1.00214
0.996949
1.00193
0.99695
1.00248
0.997005
1.00292
0.997057
1.00251
0.997258
1.00284
0.997142
1.00255
0.996855
1.00218
0.996929
1.00233
0.996723
1.00182
0.996892
1.00191
0.996893
1.00206
0.996793
1.00189
0.996923
1.0018
0.996721
1.00212
0.996842
1.00189
0.99713
1.00216
0.99658
1.00209
0.996775
1.00171
0.996857
1.00207
0.996806
1.00197
0.996828
1.00185
0.99692
1.00216
0.9969
1.00217
0.997164
1.00204
0.997041
1.00258
0.996824
1.00214
0.997364
1.00216
0.997384
1.00208
0.99582
1.00073
0.998172
1.00665
1.00346
4.62322e-30
8.92792e-17
2.69945e-26
8.48271e-18
-2.75475e-33
-7.08604e-27
7.04455e-20
3.73765e-08
1.89497e-07
1.35313e-07
3.90658e-10
-3.1728e-11
-1.48609e-12
4.39303e-18
-2.52753e-14
3.78668e-18
2.13414e-16
2.77874e-16
4.0836e-36
3.8744e-18
5.80307e-19
2.55775e-18
3.39888e-19
3.94689e-18
2.61013e-22
-1.96839e-23
-5.23848e-25
-6.81322e-27
-1.12868e-29
1.68917e-30
3.89782e-32
4.44129e-34
7.11778e-07
5.74724e-07
-2.21094e-13
-1.26088e-13
-7.92453e-35
-4.06498e-33
6.26897e-28
1.14816e-27
-1.07363e-26
-1.44619e-31
-9.49588e-27
-3.75076e-29
-5.53821e-29
9.08699e-29
-1.20288e-32
-2.305e-31
-0.000178708
-0.000120919
1.54921e-26
-9.35885e-27
1.55968e-30
7.66228e-30
2.16021e-25
2.97478e-25
5.48095e-26
-3.48456e-23
-8.83366e-23
-1.06344e-21
-5.79608e-22
-4.51601e-21
9.83028e-21
2.99901e-20
4.82401e-19
6.29298e-19
1.20158e-18
3.96518e-18
4.54238e-18
6.57821e-18
5.51098e-09
2.77579e-09
1.02898
1.03011
0.990458
1.02226
0.85083
0.917924
0.673814
0.749992
0.482504
0.558464
0.30384
0.364152
0.175077
0.216136
0.0968086
0.12094
0.0513955
0.0648152
0.025945
0.033301
0.0127349
0.0164679
0.00605654
0.00787498
0.00274281
0.00362181
0.00119544
0.00158922
0.000506157
0.000680379
0.000210228
0.000284025
8.45219e-05
0.000114911
3.35237e-05
4.56455e-05
1.31611e-05
1.80707e-05
4.92015e-06
6.79425e-06
1.83462e-06
2.53568e-06
6.78763e-07
9.46917e-07
2.45608e-07
3.4074e-07
8.75687e-08
1.23053e-07
3.1322e-08
4.38413e-08
1.09462e-08
1.54486e-08
3.74356e-09
5.30302e-09
1.27835e-09
1.79179e-09
4.3124e-10
6.07963e-10
1.43367e-10
2.03583e-10
4.73289e-11
6.70919e-11
1.53153e-11
2.17617e-11
4.88516e-12
7.00973e-12
1.52705e-12
2.18001e-12
4.83509e-13
6.90123e-13
1.54111e-13
2.21296e-13
4.70864e-14
6.77282e-14
1.43991e-14
2.07487e-14
4.29576e-15
6.21999e-15
1.30622e-15
1.87763e-15
3.89376e-16
5.65013e-16
1.22022e-16
1.74956e-16
4.37925e-17
6.1008e-17
-1.34381e-15
-1.08281e-14
5.70559e-17
3.59322e-18
5.67645e-18
-1.54375e-32
1.50538e-36
7.37063e-17
1.99931e-17
-0.00178163
3.61587e-36
0.922595
2.33087e-08
1.1597e-17
2.73019e-36
3.67125e-20
6.34159e-21
6.24319e-18
-9.47825e-13
5.98656e-12
-7.06473e-11
-8.77075e-11
-7.85938e-12
1.42014e-17
2.67522e-21
-5.72572e-23
-3.67878e-24
-6.69826e-26
-5.2849e-28
6.63026e-30
2.74745e-31
4.53782e-33
1.35663e-34
0.00947981
5.79477e-18
1.72937e-06
1.8464e-06
5.24994e-24
3.00326e-24
0.958283
6.18995e-31
1.03674e-26
2.89339e-22
1.87674e-22
7.75991e-23
-1.5958e-21
1.12595e-22
1.69765e-21
2.69203e-21
1.3727e-20
-1.40437e-20
1.96543e-19
8.93611e-19
4.20923e-19
2.16199e-18
6.73031e-18
0.0745204
0.042289
1.97685e-17
1.77811e-31
-1.13646e-06
-1.58417e-05
2.13326e-06
5.82067e-18
1.71731e-18
9.40811e-19
6.92093e-19
3.80498e-20
1.52067e-20
4.37143e-36
2.38845e-33
3.10484e-18
6.08096e-19
1.30433e-18
-0.0020947
0.00259406
-0.00262804
2.77153e-19
0.682573
-2.08801e-20
1.95486e-20
3.96362e-21
2.31639e-32
1.25031e-30
1.49526e-29
-3.12329e-27
-3.14477e-25
-1.50307e-23
-2.65286e-11
3.57822e-35
-0.000668009
-0.00151351
-0.000504683
8.70359e-31
0.785058
1.69286e-35
-5.44851e-23
6.29148e-30
-1.63683e-28
2.12475e-34
-3.61218e-26
-5.63731e-12
-2.44485e-24
-6.82953e-23
2.0903e-34
-5.20037e-23
2.42093e-21
2.17573e-26
2.38587e-30
1.41719e-26
-1.24955e-22
-6.71401e-21
-8.58843e-22
0.322116
-1.09941e-16
1.02267
1.02765
1.04236
1.02306
1.03957
1.02026
1.03391
1.0195
1.03165
1.01889
1.0306
1.01813
1.0299
1.01837
1.02958
1.01807
1.02954
1.0184
1.02919
1.0185
1.02984
1.01863
1.02974
1.01873
1.03007
1.01837
1.03009
1.01884
1.0297
1.01958
1.02987
1.01882
1.03096
1.01834
1.02915
1.01895
1.02989
1.01845
1.03006
1.01825
1.02911
1.01882
1.03034
1.01817
1.02979
1.01801
1.02942
1.01831
1.02946
1.01799
1.02943
1.01834
1.02909
1.01849
1.02979
1.01864
1.02971
1.01871
1.03004
1.01822
1.02997
1.01789
1.02933
1.01832
1.0293
1.0185
1.02962
1.01816
1.02953
1.01864
1.02944
1.01848
1.02962
1.01936
1.0294
1.01966
1.03118
1.01813
1.03075
1.0171
1.03015
1.02323
1.02942
1.02701
1.03056
1.02814
1.51529e-07
1.78811e-35
4.93302e-21
-7.82479e-32
-2.50107e-22
1.9255e-30
2.77312e-10
-1.04805e-25
1.07249e-17
6.29841e-33
-1.2104e-15
-6.16925e-16
-8.71764e-23
2.11654e-20
6.15339e-19
-2.97532e-29
1.06921e-17
2.82922e-34
3.19226e-22
2.1824e-23
6.11177e-24
-2.48037e-12
-1.61741e-26
-2.91403e-28
-1.58785e-28
-2.31977e-30
-8.48255e-31
6.24435e-18
5.92869e-24
-1.28481e-22
-3.42735e-13
1.07482e-17
-1.13738e-32
3.20525e-26
-0.000287081
3.85285e-26
8.33102e-30
1.25182e-19
8.32288e-20
0.881928
-1.10513e-20
-2.93586e-21
7.12643e-21
0.20969
1.60955e-32
2.16623e-32
7.30283e-21
-1.64288e-20
-3.68761e-34
-2.16774e-34
-1.76442e-32
2.30131e-20
1.2071e-19
8.76237e-19
2.42089e-18
1.18499e-18
3.5541e-18
9.17107e-18
1.25505e-17
1.16959e-08
-3.22374e-31
2.72104e-30
1.00239
1.02594
0.881849
0.947235
0.717721
0.797925
0.523414
0.605883
0.333262
0.399779
0.19639
0.243322
0.108684
0.136846
0.0585809
0.0741192
0.0299677
0.0386659
0.0146581
0.0190748
0.00702021
0.00919279
0.00315668
0.0042109
0.001376
0.00184253
0.000600301
0.00080993
0.000246896
0.000338182
9.99913e-05
0.000136617
4.01164e-05
5.50014e-05
1.54301e-05
2.13841e-05
5.83901e-06
8.11323e-06
2.22369e-06
3.09751e-06
8.08667e-07
1.1382e-06
2.97496e-07
4.15202e-07
1.07853e-07
1.52203e-07
3.81598e-08
5.3634e-08
1.37859e-08
1.93743e-08
4.64341e-09
6.69952e-09
1.50452e-09
2.1513e-09
5.3039e-10
7.52048e-10
1.75968e-10
2.52721e-10
5.76411e-11
8.23958e-11
1.91506e-11
2.75086e-11
5.95845e-12
8.65288e-12
1.88888e-12
2.71608e-12
6.08915e-13
8.74516e-13
1.9022e-13
2.75114e-13
6.01078e-14
8.6576e-14
1.85703e-14
2.69731e-14
5.52716e-15
8.06047e-15
1.70202e-15
2.46473e-15
5.13011e-16
7.49605e-16
1.56697e-16
2.26039e-16
5.35502e-17
7.52647e-17
2.12697e-22
3.10014e-22
-3.58757e-22
1.18977e-17
1.82436e-17
1.59496e-17
-3.34314e-20
1.65258e-19
1.80276e-07
2.64027e-07
-1.02723e-25
-7.12371e-26
1.13242e-17
1.89521e-17
-3.60849e-32
-5.05135e-32
-5.19173e-31
-1.34023e-12
-3.37331e-12
-1.0822e-12
2.08784e-09
7.81646e-09
1.24722e-09
2.83741e-21
1.29319e-20
1.5664e-21
5.09395e-34
1.7011e-32
-0.000208725
-7.47202e-05
4.90127e-08
2.49856e-17
-1.00961e-26
-2.23103e-27
2.67493e-17
1.42113e-22
-5.08021e-20
-2.29708e-18
1.54162e-17
-1.41792e-29
-4.19706e-17
9.1145e-34
2.0229e-11
1.67397e-17
-4.28627e-25
1.37297e-10
-1.37344e-27
3.63762e-08
2.66743e-18
1.90487e-18
2.89363e-12
-3.75543e-25
3.19235e-17
1.29147e-07
-1.10969e-24
-2.38339e-13
-6.36232e-14
-1.53949e-06
-4.93403e-07
-1.9331e-26
4.4609e-26
0.98771
3.24912e-26
0.660962
7.15872e-26
4.88022e-30
7.54857e-30
4.43697e-22
1.41825e-25
1.03413e-23
6.79887e-22
0.747562
-4.44861e-21
5.12826e-18
1.01863
-1.91411e-21
4.08496e-20
0.0223301
1.42561e-18
1.57382e-18
-9.82825e-15
-4.06734e-14
-5.6925e-15
1.41793e-27
-2.99559e-26
1.08026e-20
4.23693e-33
1.30395e-28
2.6087e-27
5.87685e-20
-0.000928269
-0.000700833
5.4845e-19
4.23751e-19
-0.0022906
-0.00211143
7.78904e-25
5.283e-25
-2.78475e-21
0.931551
4.55835e-26
1.43508e-29
1.73221e-18
3.57612e-18
3.58949e-20
2.08277e-18
2.36402e-18
1.20211e-29
-2.60098e-08
-6.57888e-21
1.02467
1.02777
1.0208
1.02895
1.02321
1.03005
1.0242
1.02941
1.02468
1.02869
1.02363
1.02954
1.0245
1.02851
1.02464
1.0285
1.02375
1.02867
1.02381
1.02841
1.02366
1.02886
1.02436
1.0285
1.0232
1.02837
1.02378
1.02912
1.02325
1.02809
1.02395
1.02832
1.02232
1.02984
1.02415
1.02883
1.02458
1.02835
1.02259
1.02962
1.02435
1.02841
1.02395
1.02913
1.02396
1.02982
1.02507
1.02857
1.02485
1.0285
1.02375
1.02869
1.02376
1.02849
1.0236
1.02905
1.02422
1.02873
1.02289
1.02867
1.02359
1.02991
1.02422
1.02948
1.02496
1.02882
1.02383
1.02998
1.02427
1.02829
1.02369
1.02829
1.02102
1.02735
1.02075
1.0249
1.02292
1.01922
1.02801
0.72023
4.31181e-17
-5.89573e-27
-2.10432e-22
-3.92636e-28
8.01694e-23
8.47834e-25
2.53842e-17
5.82489e-17
1.23318e-19
7.30386e-26
9.28515e-11
-3.31926e-16
-9.26288e-31
3.3008e-17
-7.16827e-20
5.52085e-10
3.48127e-10
0.326823
-8.08819e-30
-4.41104e-30
1.0505e-21
3.95854e-18
6.0943e-22
3.56415e-22
-6.32583e-29
-3.75456e-29
4.29027e-18
-2.25368e-15
-1.39069e-15
-2.09238e-27
-1.52021e-27
-8.8239e-29
1.45449e-29
2.37064e-29
1.08766e-17
-0.00331631
0.00689345
-5.76136e-33
-8.8617e-32
-4.78715e-31
-3.36622e-32
-2.67333e-20
1.74946e-19
1.97013e-18
6.14145e-18
0.0680646
2.07966e-20
-4.03539e-20
-1.28602e-28
-0.000925462
0.00851076
1.39228e-28
0.0703013
0.0381068
0.109524
6.77868e-18
5.9923e-18
0.890074
0.717334
4.73286e-19
2.78643e-18
9.41895e-24
4.68298e-24
0.91916
0.776168
0.856383
0.580581
0.673083
0.371922
0.452442
0.222927
0.276966
0.12779
0.161083
0.068789
0.0877258
0.0355024
0.0458744
0.0176634
0.0230117
0.00833705
0.0110207
0.00376258
0.00504588
0.00166753
0.0022443
0.00073147
0.000989039
0.000307587
0.000422384
0.000123578
0.000171151
4.88321e-05
6.78243e-05
1.91969e-05
2.66676e-05
7.33678e-06
1.02704e-05
2.75445e-06
3.86924e-06
1.03021e-06
1.4565e-06
3.73417e-07
5.30005e-07
1.35513e-07
1.92487e-07
4.86522e-08
6.91415e-08
1.73912e-08
2.48491e-08
6.00175e-09
8.65034e-09
1.98491e-09
2.86971e-09
6.81944e-10
9.78628e-10
2.28313e-10
3.28762e-10
7.50829e-11
1.08181e-10
2.47138e-11
3.56873e-11
7.84734e-12
1.14572e-11
2.4713e-12
3.61229e-12
7.82098e-13
1.13906e-12
2.51719e-13
3.65527e-13
8.05602e-14
1.17739e-13
2.46249e-14
3.61012e-14
7.69465e-15
1.1292e-14
2.34101e-15
3.4588e-15
7.07958e-16
1.05448e-15
2.26933e-16
3.432e-16
7.66296e-17
-1.42914e-05
-5.02685e-05
-8.49696e-06
-7.77877e-07
-3.46967e-07
6.14177e-30
2.24415e-29
3.51553e-26
-3.5692e-27
1.87318e-17
4.79058e-17
1.47495e-20
-9.59487e-21
5.73571e-20
6.40838e-19
1.75497e-18
4.44916e-23
6.03268e-13
-1.08185e-31
2.68803e-17
3.38699e-17
-2.51842e-28
0.000869936
-0.00112422
1.65471e-28
1.23439e-16
2.93809e-17
1.67932e-17
8.52121e-20
5.28429e-20
0.18478
-6.58374e-27
-1.88091e-16
-3.9329e-17
-1.10116e-19
2.69084e-09
1.83002e-09
9.42136e-24
-3.18883e-22
5.06985e-18
3.50076e-18
-1.23265e-20
-8.24233e-21
-5.5963e-26
-5.36477e-06
-3.21632e-06
9.99096e-18
1.0115e-25
1.41377e-25
1.0123e-25
2.58156e-08
8.6358e-22
6.06818e-22
3.37039e-25
2.84076e-25
3.14474e-25
-1.2595e-14
-8.66668e-15
1.00302
0.996458
-2.30212e-33
-2.08426e-28
3.02437e-20
-4.37988e-32
-6.62004e-32
-1.56741e-31
0.237566
1.54106e-17
2.24553e-08
-2.97632e-28
1.11347e-11
5.3263e-11
4.99704e-12
0.980706
1.00667
-7.43997e-22
-1.04786e-21
1.65535e-21
4.42837e-25
1.01631e-08
2.45963e-08
7.68306e-09
-0.000369501
3.0641e-27
6.20009e-27
-8.34004e-26
3.80508e-21
2.49829e-21
3.51815e-17
-0.000979536
-0.00174966
-0.000829606
-1.44496e-19
7.10801e-20
1.41504e-28
-6.3752e-31
-1.11347e-30
8.7483e-30
1.43913e-14
-1.17702e-13
2.11056e-20
5.21824e-17
1.86414e-24
1.35673e-24
0.912977
5.02793e-17
-1.18063e-32
1.83453e-17
0.96155
0.965839
0.932127
0.966183
0.931903
0.966399
0.933961
0.966517
0.9348
0.967225
0.93338
0.968223
0.936445
0.967883
0.936586
0.968728
0.936337
0.968455
0.937016
0.967355
0.937277
0.967452
0.935185
0.968062
0.936672
0.967795
0.935704
0.965962
0.935126
0.966406
0.934708
0.966823
0.933187
0.966378
0.935698
0.966693
0.934667
0.967694
0.934591
0.966653
0.934792
0.967379
0.934584
0.967724
0.934169
0.968298
0.936699
0.967817
0.936528
0.968621
0.936193
0.968218
0.936736
0.966718
0.936494
0.965451
0.933068
0.966132
0.934303
0.96813
0.934363
0.968379
0.93702
0.967821
0.937266
0.967058
0.934028
0.964506
0.93324
0.961418
0.92773
0.960394
0.922336
0.976009
0.955569
0.931192
0.465735
1.02551
-1.64009e-06
1.20418e-19
5.3205e-17
4.39925e-17
-1.57448e-28
1.06083e-17
2.2433e-24
1.88708e-20
4.67653e-30
3.47265e-19
1.91926e-19
0.422964
2.19945e-26
-5.0448e-28
-7.11797e-28
-2.32944e-28
-1.94526e-15
3.15933e-17
7.71689e-17
4.71084e-22
5.87525e-10
1.20038e-24
9.29167e-17
-3.84106e-18
-2.02272e-17
-1.55952e-18
-1.13068e-29
-0.000275698
-0.000107022
0.48862
-5.54112e-29
-4.12723e-29
0.915572
9.82934e-28
-6.03599e-29
4.2227e-20
0.133708
4.4141e-25
1.10541e-24
1.79026e-23
5.74433e-20
1.39664e-20
0.356515
8.06483e-17
-1.34908e-19
-2.1318e-20
6.11108e-20
0.852936
0.954057
0.925389
0.902252
5.64652e-20
-6.2791e-20
4.99449e-19
1.22651e-17
2.70105e-17
0.760096
0.800259
0.447264
9.93741e-18
1.53239e-17
-5.01776e-14
-1.26704e-13
-3.88071e-14
6.03226e-18
1.80346e-17
1.65766e-23
1.02717e-23
0.65979
0.431547
0.528482
0.265335
0.328126
0.154237
0.193279
0.0831638
0.105928
0.0434183
0.0562327
0.0213067
0.0280406
0.0101759
0.0134534
0.00470566
0.00632598
0.00209429
0.00283962
0.00092123
0.00124883
0.000397011
0.000546859
0.000158639
0.000220625
6.3801e-05
8.87265e-05
2.523e-05
3.53431e-05
9.42521e-06
1.32902e-05
3.62393e-06
5.1056e-06
1.37383e-06
1.95069e-06
4.97129e-07
7.07828e-07
1.85374e-07
2.64694e-07
6.56289e-08
9.43366e-08
2.33745e-08
3.32956e-08
8.3581e-09
1.2084e-08
2.73718e-09
4.01735e-09
9.2559e-10
1.3328e-09
3.14009e-10
4.58451e-10
1.01029e-10
1.48051e-10
3.31354e-11
4.83292e-11
1.0892e-11
1.60354e-11
3.40774e-12
5.01385e-12
1.10628e-12
1.62472e-12
3.58806e-13
5.25929e-13
1.12482e-13
1.64532e-13
3.57629e-14
5.34085e-14
1.09981e-14
1.63467e-14
3.51999e-15
5.20357e-15
1.14514e-15
1.71991e-15
3.94195e-16
6.0286e-16
9.7405e-17
1.40101e-16
1.55627e-16
4.18856e-29
1.77877e-29
2.47364e-25
1.22873e-25
9.07596e-17
1.38236e-16
-2.10481e-20
8.18907e-20
1.71307e-18
8.73724e-18
2.73177e-12
-1.72134e-28
-9.42633e-07
-2.4512e-07
-5.54313e-20
-4.83619e-21
4.58294e-17
-1.52996e-19
-8.54569e-20
-1.46173e-15
-4.28462e-16
1.34205e-16
-1.40943e-18
-7.4465e-19
1.23009e-24
1.48094e-21
1.44057e-21
8.83728e-27
0.229292
-7.28069e-30
-1.65643e-30
-3.0159e-20
-8.33888e-06
-5.46163e-06
2.0214e-09
1.62355e-09
-5.14471e-22
-0.000291399
8.8454e-17
1.79713e-25
1.8994e-24
1.33427e-16
1.26915e-16
9.87764e-23
-9.4979e-20
1.51019e-17
-5.62862e-15
-5.42214e-15
-9.94671e-31
-2.75449e-31
-1.81322e-30
2.1043e-11
1.21539e-11
0.777631
3.12389e-25
2.55358e-25
0.0895335
0.0255502
2.25295e-21
-3.14644e-20
2.44462e-16
-2.61888e-05
-7.28866e-05
-1.7243e-05
-1.30926e-25
4.38032e-25
6.78139e-27
1.29312e-26
-1.99363e-25
-0.000353081
-0.000473589
4.01401e-24
2.87259e-24
4.10837e-10
1.24349e-10
1.8773e-29
2.72075e-29
6.59463e-29
-1.2172e-07
-1.86274e-08
2.3812e-18
3.65185e-22
2.1953e-21
1.52596e-21
6.55085e-23
9.49956e-28
-3.76321e-22
0.833527
0.83395
0.776471
0.832944
0.776185
0.833525
0.774759
0.83433
0.775465
0.836503
0.777801
0.837678
0.779154
0.835645
0.778159
0.83493
0.775869
0.836273
0.777464
0.836508
0.779248
0.836802
0.779681
0.834819
0.777523
0.833201
0.776706
0.833927
0.775482
0.834916
0.775818
0.833237
0.776742
0.835362
0.777121
0.834785
0.780118
0.834394
0.778493
0.835308
0.777505
0.835077
0.777029
0.836544
0.778227
0.837499
0.779075
0.835344
0.777969
0.83401
0.775404
0.833415
0.776051
0.833597
0.776046
0.835865
0.778017
0.838656
0.780692
0.837825
0.782099
0.837191
0.780994
0.833312
0.777894
0.824997
0.770433
0.814338
0.757993
-8.20609e-29
3.70086e-17
6.35396e-26
2.59718e-24
-2.45537e-06
2.38412e-16
1.2495e-19
1.56361e-16
6.43362e-20
-0.0002519
-0.000110978
2.37698e-16
3.37635e-16
2.25556e-16
3.39377e-16
3.60108e-16
8.30198e-27
4.42061e-27
3.26399e-17
-1.51221e-19
2.47704e-17
4.63382e-17
5.0958e-17
3.73861e-17
-1.68287e-31
0.517918
1.02417e-23
8.57513e-24
0.318254
0.387365
0.185224
0.229822
0.100781
0.12877
0.0524237
0.0677095
0.026594
0.03481
0.0126891
0.0168722
0.00595235
0.00796163
0.00271041
0.00368069
0.00118043
0.00160886
0.000521793
0.000709604
0.000208838
0.000293101
8.27841e-05
0.000115547
3.32694e-05
4.65196e-05
1.25255e-05
1.78893e-05
4.84046e-06
6.79919e-06
1.88681e-06
2.65426e-06
6.81364e-07
9.81705e-07
2.51738e-07
3.5759e-07
9.23162e-08
1.33097e-07
3.16506e-08
4.57192e-08
1.15689e-08
1.64881e-08
3.90253e-09
5.74777e-09
1.26426e-09
1.84843e-09
4.34741e-10
6.28078e-10
1.44632e-10
2.12962e-10
4.63792e-11
6.77301e-11
1.58287e-11
2.29723e-11
4.95511e-12
7.38911e-12
1.58132e-12
2.31951e-12
5.1673e-13
7.61241e-13
1.584e-13
2.34167e-13
5.16269e-14
7.48226e-14
1.64448e-14
2.42644e-14
5.31932e-15
7.79465e-15
1.94291e-15
2.8321e-15
7.75506e-16
5.42232e-16
1.22196e-15
-2.10138e-21
3.52964e-21
3.53574e-09
-1.92527e-09
4.26308e-09
4.44161e-25
2.68441e-25
2.49457e-16
3.53932e-16
1.61996e-19
-2.28179e-19
0.00245155
0.000403381
1.87878e-17
5.32934e-17
9.66792e-17
2.25725e-16
1.39725e-12
2.79822e-13
2.6535e-19
-5.13309e-20
-2.64649e-31
-1.07356e-30
-4.07824e-31
0.658325
1.11022e-21
0.81954
-1.97672e-27
-1.35808e-27
0.80753
0.775513
0.829029
-2.89803e-16
-7.49888e-17
1.36957e-16
-2.96513e-21
0.607549
-2.50624e-18
3.65178e-26
5.11865e-12
-5.24215e-21
-2.6054e-21
7.43157e-17
0.74245
0.767157
-1.5654e-18
-3.74227e-19
-1.94978e-05
4.00371e-21
-7.70988e-22
-9.68847e-06
-6.97965e-06
-1.96297e-10
5.82072e-24
9.41167e-25
1.45576e-18
1.01037e-18
7.63231e-29
0.0127266
4.43621e-24
8.33844e-24
-9.16328e-20
-6.65599e-20
1.2693e-23
4.42536e-28
-5.30314e-31
2.54732e-16
5.01277e-31
1.08571e-14
7.97454e-11
0.784638
0.743632
0.664219
2.51357e-11
1.66045e-11
-9.52175e-23
0.33214
0.382516
0.146932
1.06772e-14
-5.48416e-15
7.12829e-24
2.53195e-23
5.2982e-25
7.68845e-25
6.80193e-24
-5.53496e-20
1.77154e-19
1.71549e-24
-1.64294e-06
-5.17007e-07
1.30488e-26
-3.28765e-05
-2.31369e-05
2.34024e-19
-1.10071e-17
-6.42706e-18
3.68101e-16
2.69057e-24
7.51065e-25
0.000830621
0.000383535
5.91138e-18
1.22942e-28
-7.70534e-29
4.50611e-15
3.24454e-16
6.01051e-29
8.89782e-29
1.91906e-28
4.29429e-19
-1.25386e-21
5.71765e-21
3.21014e-10
3.09463e-10
8.12399e-18
2.13137e-29
3.69527e-16
2.64645e-17
1.31308e-16
-5.04853e-20
-2.25175e-19
-2.80626e-20
0.654664
-8.54413e-21
-6.07946e-21
0.653702
0.593354
0.653074
0.593015
0.653136
0.592443
0.655545
0.593732
0.657071
0.59494
0.653925
0.595183
0.651841
0.591603
0.656066
0.591893
0.656957
0.596601
0.657478
0.596096
0.65587
0.596256
0.654585
0.594953
0.654356
0.594013
0.653788
0.593755
0.654952
0.594897
0.658263
0.596375
0.660321
0.597572
0.655629
0.596126
0.655019
0.592732
0.654873
0.594087
0.656271
0.595103
0.65705
0.595386
0.653831
0.595176
0.651508
0.591582
0.654988
0.591646
0.65581
0.595954
0.656046
0.594029
0.66005
0.595893
0.659968
0.59974
0.66046
0.597934
0.655965
0.597889
0.645999
0.589549
0.632496
0.553858
0.577025
-1.19179e-23
5.61372e-17
0.643645
5.8516e-26
1.01027e-16
-8.38968e-05
2.62847e-26
4.69758e-24
1.50643e-26
-1.07615e-27
3.60557e-28
-1.49536e-22
-7.4217e-23
4.3083e-21
-8.32355e-20
-1.84634e-19
-5.56478e-31
2.86001e-18
1.93364e-17
8.07638e-17
6.50898e-16
-1.97128e-27
2.13618e-27
1.27299e-27
-8.46728e-31
1.11971e-10
2.73616e-10
7.91267e-11
2.45461e-25
1.96e-25
1.99697e-23
6.026e-17
1.4572e-16
6.81084e-16
9.67288e-16
0.35722
0.430539
-5.32813e-25
-3.39047e-25
0.214676
0.263135
0.120337
0.151338
0.0646834
0.0825813
0.0329276
0.0425152
0.0161621
0.021173
0.00766761
0.0101861
0.00352066
0.00470108
0.00158144
0.00213638
0.000671787
0.000910454
0.000275162
0.000378967
0.000111851
0.000155234
4.42188e-05
6.12762e-05
1.73745e-05
2.43743e-05
6.66156e-06
9.40807e-06
2.53065e-06
3.55876e-06
9.50779e-07
1.34979e-06
3.55458e-07
5.05208e-07
1.29524e-07
1.83975e-07
4.54833e-08
6.57009e-08
1.60021e-08
2.29181e-08
5.46891e-09
7.88569e-09
1.86451e-09
2.72209e-09
6.1206e-10
8.91927e-10
2.05693e-10
2.96874e-10
6.83799e-11
1.00434e-10
2.21742e-11
3.22418e-11
7.24637e-12
1.05835e-11
2.37309e-12
3.49684e-12
7.54517e-13
1.10155e-12
2.38426e-13
3.53226e-13
7.5248e-14
1.11541e-13
2.40129e-14
3.51674e-14
8.024e-15
1.16406e-14
2.99501e-15
4.12396e-15
-1.3576e-21
-7.41023e-22
-3.16067e-19
4.09408e-18
0.00589556
0.0033938
1.03987e-16
1.95598e-16
4.45619e-16
1.0005e-15
1.22893e-13
1.23198e-18
2.73531e-17
0.654198
0.587339
1.63855e-26
6.85557e-21
-1.76889e-20
1.63719e-11
-3.83472e-27
2.89639e-14
1.52573e-16
9.92969e-21
-2.46459e-20
0.594203
1.65771e-15
-4.73442e-17
-9.92673e-21
-5.99212e-21
-7.86152e-05
-2.799e-23
-1.23358e-23
-1.87339e-21
-9.13703e-18
-4.21813e-09
3.24823e-12
-1.36171e-17
2.66597e-25
-6.75331e-05
3.45016e-19
-2.61998e-19
-1.13863e-23
2.00849e-28
-3.44162e-09
-2.7517e-24
1.20456e-26
0.570042
0.61776
2.83556e-16
0.279322
6.24242e-16
8.16718e-16
1.30967e-24
1.15492e-18
6.42251e-19
9.54767e-16
6.18761e-16
-5.21283e-27
-8.20686e-27
3.60885e-26
0.0333241
6.54381e-16
1.60166e-18
9.25232e-24
8.74267e-25
1.79246e-24
4.63553e-19
4.08331e-26
5.87952e-14
0.0200402
0.523816
0.514239
0.303167
5.75645e-25
0.0994622
1.06698e-13
2.73204e-24
2.73097e-24
5.96736e-16
9.00359e-16
9.40953e-16
-3.03017e-05
-2.36881e-05
-3.17142e-07
-8.33286e-08
-6.02143e-18
-2.37418e-06
-4.74944e-28
-5.29614e-27
-9.80806e-09
0.000406517