/*--------------------------------*- C++ -*----------------------------------*\
  =========                 |
  \\      /  F ield         | OpenFOAM: The Open Source CFD Toolbox
   \\    /   O peration     | Website:  https://openfoam.org
    \\  /    A nd           | Version:  7
     \\/     M anipulation  |
\*---------------------------------------------------------------------------*/
FoamFile
{
    version     2.0;
    format      ascii;
    class       volScalarField;
    location    "0.4";
    object      T;
}
// * * * * * * * * * * * * * * * * * * * * * * * * * * * * * * * * * * * * * //

dimensions      [0 0 0 1 0 0 0];

internalField   nonuniform List<scalar> 
45544
(
0
0
0
0
0
0
0
0
0
0
0
0
0
0
0
0
0
0
0
0
0
0
0
0
0
0
0
0
0
0
0
0
0
0
0
0
0
0
0
0
0
0
0
0
0
0
0
0
0
0
0
0
0
0
0
0
0
0
0
0
0
0
0
0
0
0
0
0
0
0
0
0
0
0
0
0
0
0
0
0
0
0
0
0
0
0
0
0
0
0
0
0
0
0
0
0
0
0
0
0
0
0
0
0
0
0
0
0
0
0
0
0
0
0
0
0
0
0
0
0
0
0
0
0
0
0
0
0
0
0
0
0
0
0
0
0
0
0
0
0
0
0
0
0
0
0
0
0
0
0
0
0
0
0
0
0
0
0
0
0
0
0
0
0
0
0
0
0
0
0
0
0
0
0
0
0
0
0
0
0
0
0
0
0
0
0
0
0
0
0
0
0
0
0
0
0
0
0
0
0
0
0
0
0
0
0
0
0
-2.99214e-37
1.84611e-34
-5.6932e-32
6.77452e-31
9.14801e-29
-9.72408e-30
-7.40964e-28
1.90687e-28
1.82516e-27
2.06576e-27
2.06746e-27
-4.16941e-27
-7.48928e-27
-6.32677e-27
4.24668e-28
1.04958e-25
-1.8654e-25
-7.75476e-25
1.42028e-24
-1.9176e-24
6.37519e-24
4.78837e-24
5.04193e-24
4.96973e-24
3.92241e-24
4.96909e-24
-2.87183e-24
1.67679e-23
3.08085e-23
3.67067e-23
4.03368e-23
6.9834e-23
8.62927e-23
7.72019e-23
5.59681e-23
-4.32872e-23
-8.25149e-23
-7.88014e-23
-8.71288e-23
-7.99354e-23
-7.77479e-23
-6.16714e-23
-3.94985e-23
-1.95443e-24
-2.77381e-24
8.4867e-24
6.49556e-24
7.36036e-24
6.87822e-24
6.03261e-24
4.49778e-24
2.09768e-24
1.53012e-24
9.9879e-25
4.54726e-25
1.6297e-25
-9.50608e-26
-8.07597e-26
-7.47264e-26
-7.00641e-26
-4.71842e-26
-2.79164e-26
-1.66764e-26
-9.63341e-27
-4.21022e-27
-2.31012e-27
-1.28742e-27
-1.01652e-28
1.00427e-28
1.2165e-28
1.13513e-28
1.02562e-28
8.29848e-29
5.03666e-29
3.04822e-29
1.67348e-29
9.62605e-30
4.6574e-30
2.61529e-30
1.4129e-30
5.1453e-31
2.29671e-31
4.44165e-32
2.6051e-32
8.6207e-33
3.48824e-33
-2.13367e-34
-2.07669e-33
-2.82367e-33
-1.17017e-32
1.71436e-29
0
0
0
0
0
0
0
0
0
0
0
0
0
0
0
0
0
0
0
0
0
0
0
0
0
0
0
0
0
0
0
0
0
0
0
0
0
0
0
0
0
0
0
0
0
0
0
0
0
0
0
0
0
0
0
0
0
0
0
0
0
0
0
0
0
0
0
0
0
0
0
0
0
0
0
0
0
0
0
0
0
0
0
0
1.94685e-121
2.43356e-121
9.79132e-119
-1.56992e-118
2.68563e-117
1.13106e-117
2.85178e-117
2.13448e-117
2.03288e-117
1.40896e-117
4.71976e-116
-1.64489e-117
1.23667e-113
1.45245e-113
7.59528e-114
8.60982e-114
5.67766e-113
-1.78295e-112
8.94356e-112
7.54348e-112
1.07239e-111
1.09562e-111
1.32464e-111
1.08625e-111
1.16296e-111
1.54909e-112
6.45736e-111
7.07153e-111
1.52116e-110
1.50772e-110
1.02959e-110
1.01737e-110
4.57396e-110
-7.7234e-112
5.52118e-108
4.95396e-108
4.73733e-108
-1.42902e-108
4.57716e-108
-3.53006e-108
-1.34128e-106
-2.49138e-106
5.81345e-104
-2.30687e-103
6.42963e-102
3.43347e-102
3.88302e-101
-3.25563e-102
1.1683e-98
1.20377e-98
3.29513e-98
3.899e-98
2.11221e-98
2.48468e-98
2.82944e-98
-3.42609e-98
3.50428e-97
3.55801e-97
4.71683e-97
5.04366e-97
2.82803e-96
2.90047e-96
2.28204e-95
5.33972e-96
1.61982e-92
1.98165e-92
1.02769e-92
1.29082e-92
6.60559e-93
8.17411e-93
2.95699e-92
3.60056e-92
1.56307e-91
3.00578e-91
-2.75373e-90
2.52725e-89
-1.24375e-87
-1.73432e-87
-1.52811e-87
-2.98007e-87
2.58279e-86
-9.22475e-86
2.12196e-85
7.74104e-87
2.73171e-85
1.35372e-85
4.2599e-85
-6.86069e-86
5.78361e-85
-5.04876e-85
2.33226e-84
2.11355e-84
2.44704e-84
-1.69248e-84
4.54078e-84
1.42023e-84
3.35938e-84
1.21336e-84
2.55817e-84
7.44056e-85
3.13746e-84
-3.96656e-84
1.7086e-83
4.22495e-84
9.39232e-83
8.43248e-83
2.55243e-82
2.09344e-82
1.80269e-82
1.46412e-82
1.26798e-82
9.70921e-83
2.6111e-82
1.27116e-82
4.59003e-82
4.23111e-82
2.96607e-82
2.43077e-82
5.65896e-82
-1.02069e-81
2.37111e-81
2.68799e-82
2.28796e-81
-5.04819e-82
2.08959e-81
-4.59791e-82
2.32753e-81
-2.01527e-81
1.60594e-80
7.89202e-81
7.97442e-80
6.69244e-81
6.2594e-80
8.94985e-81
4.97389e-80
9.7288e-81
3.95545e-80
6.532e-81
1.5195e-79
3.06256e-80
2.87163e-79
2.35145e-79
1.95361e-79
1.49961e-79
1.62311e-79
1.67691e-80
2.59155e-79
9.42112e-80
2.7005e-79
1.65706e-79
2.93476e-79
1.04731e-79
2.72246e-79
-9.32048e-80
3.52151e-79
4.7783e-80
6.07794e-79
-2.48805e-79
5.11724e-79
-5.34244e-80
6.48366e-79
3.61142e-79
4.72029e-79
2.86738e-79
3.56113e-79
1.69795e-79
7.96669e-79
6.97986e-79
5.25335e-79
4.26514e-79
4.8598e-79
-1.29017e-79
7.88263e-79
5.77583e-80
8.2303e-79
3.20219e-79
8.51803e-79
1.8612e-79
8.07003e-79
-3.63922e-79
8.9194e-79
-1.35177e-79
9.90219e-79
-7.78919e-79
1.11659e-78
-2.6849e-80
1.02214e-78
2.64995e-79
8.08405e-79
1.43589e-79
7.31754e-79
2.79965e-79
6.70082e-79
3.61263e-79
6.38056e-79
-2.59094e-79
1.09842e-78
6.37585e-79
8.53132e-79
2.91456e-79
6.34496e-79
2.34875e-79
9.52711e-79
2.3063e-79
1.3271e-78
9.7837e-79
9.03285e-79
6.28771e-79
6.72596e-79
3.13141e-79
6.23949e-79
3.79817e-79
5.53105e-79
3.66193e-79
5.44365e-79
2.99615e-79
4.18488e-79
1.27382e-79
3.05035e-79
1.14329e-79
2.32403e-79
5.93844e-80
1.77476e-79
5.84257e-80
2.28741e-79
1.42029e-79
1.61245e-79
1.05261e-79
1.96466e-79
1.00473e-79
2.45124e-79
2.02919e-79
1.6201e-79
1.2596e-79
1.19361e-79
5.76654e-80
1.21813e-79
6.22241e-80
1.05042e-79
6.78224e-80
8.29032e-80
4.34912e-80
6.62475e-80
2.13937e-80
8.61087e-80
6.06727e-80
5.98615e-80
3.90206e-80
5.25945e-80
3.07178e-80
4.50892e-80
3.12733e-80
3.15953e-80
2.1356e-80
2.37219e-80
1.03992e-80
3.63019e-80
2.51647e-80
2.45463e-80
1.53506e-80
1.96281e-80
4.17187e-81
1.83237e-80
4.97591e-81
1.52169e-80
6.26311e-81
1.17692e-80
5.1679e-81
9.31872e-81
3.86284e-81
9.47916e-81
7.13217e-81
6.76113e-81
3.91781e-81
5.41945e-81
3.32205e-81
3.82791e-81
2.39317e-81
2.70547e-81
1.74635e-81
1.9111e-81
1.24997e-81
1.60121e-81
1.23624e-81
1.51892e-81
1.09373e-81
-4.34078e-78
1.04527e-80
-1.46686e-75
-4.27482e-77
4.63272e-74
3.67608e-73
2.52466e-71
4.23134e-71
3.17086e-71
5.60553e-71
1.70262e-71
4.91239e-71
-1.93052e-70
1.43222e-70
-3.39941e-67
-4.00334e-68
-5.74592e-65
-2.097e-65
-1.85934e-63
-1.57475e-63
-1.93207e-63
5.05634e-62
9.03844e-64
-9.259e-62
2.20544e-60
3.22691e-61
3.7523e-58
-3.09546e-28
-6.28646e-26
7.52976e-24
-5.16455e-22
-7.4763e-21
3.91708e-19
9.706e-18
8.30463e-17
3.52675e-16
9.35279e-16
1.64119e-15
2.22106e-15
2.56119e-15
2.72615e-15
2.82942e-15
2.94627e-15
3.09116e-15
3.09904e-15
2.796e-15
2.20701e-15
1.52247e-15
9.21702e-16
4.844e-16
2.29031e-16
9.4708e-17
3.48968e-17
1.17158e-17
3.24073e-18
6.91906e-19
1.04452e-19
8.87783e-21
2.45684e-22
-2.20416e-23
-1.05069e-24
4.73339e-26
1.00055e-27
-8.08634e-29
1.40521e-30
-1.21376e-32
1.63577e-34
-3.01985e-36
1.13125e-37
-6.93664e-39
1.5853e-40
-6.68769e-44
-3.01158e-44
-8.82006e-47
-3.8914e-50
-1.1299e-53
-2.31096e-06
1.27798e-06
-1.17878e-06
-7.64229e-07
1.6801e-06
-2.4982e-06
-2.03933e-06
2.59217e-07
-1.03442e-06
2.50072e-06
1.62556e-06
2.72449e-06
2.95051e-06
-3.02152e-06
1.11477e-06
-9.26789e-06
-5.36982e-06
-1.25997e-05
-1.01492e-05
-7.36937e-06
-1.15797e-05
6.52885e-06
-3.61715e-06
1.93953e-05
6.54478e-06
2.26691e-05
1.30749e-05
-8.21959e-07
4.38492e-06
-5.73918e-05
-3.91222e-05
-0.000134073
-0.000131146
-0.000198403
-0.000279312
-0.000260265
-0.000441546
-0.000211732
-0.000492935
0.000268597
8.57299e-05
0.000241523
0.000118625
-0.000208029
0.000415374
0.000187538
0.00029352
0.000290671
-0.000224299
-0.000138667
-1.2776e-05
-0.000317333
0.000704212
0.000252433
0.000594529
0.000616472
0.00030519
0.000331347
0.000385365
0.000206183
0.000413018
0.000297471
0.000336967
0.000273418
0.000454583
0.000282088
0.000545235
0.00041311
0.000447086
0.000436869
2.11726e-06
5.47095e-05
0.000203049
1.80407e-05
0.000262129
3.8307e-05
5.44357e-05
2.94847e-05
7.13415e-07
-1.29238e-06
5.12616e-07
8.37945e-07
-7.98806e-06
4.87512e-07
2.22069e-05
-3.5546e-05
-0.000239262
-0.000475954
1.01275e-06
-1.44111e-09
-3.31333e-07
-1.58106e-07
-1.98878e-07
-2.31723e-07
-2.4306e-07
9.41032e-08
-2.30875e-07
4.87465e-07
3.99227e-30
0
0
0
0
0
0
0
0
2.26863e-40
-8.91316e-37
-1.16793e-33
4.17277e-32
-6.72117e-30
2.89447e-28
-9.44138e-28
4.32714e-29
1.54728e-28
1.84505e-27
2.1963e-27
-2.01144e-29
-5.97718e-27
-1.11627e-26
-6.12194e-27
-2.22037e-26
-2.14894e-25
-5.18665e-25
-6.26595e-25
8.88078e-25
1.72909e-24
2.87099e-24
8.23376e-24
-4.11993e-24
-7.96821e-26
-6.91579e-24
-2.68751e-24
2.94227e-23
1.29695e-23
3.62251e-24
2.45112e-23
7.90853e-23
9.74215e-23
1.11759e-22
9.39907e-23
4.03917e-25
-5.91001e-23
-7.13517e-23
-8.66226e-23
-7.45984e-23
-7.96137e-23
-6.51472e-23
-4.44493e-23
-2.96885e-23
-3.63187e-24
-1.39063e-24
8.51495e-24
6.50644e-24
7.50946e-24
6.83083e-24
4.98222e-24
3.876e-24
1.74954e-24
1.27458e-24
6.96026e-25
2.43e-25
7.84647e-26
-8.08912e-26
-7.41292e-26
-7.6807e-26
-5.7001e-26
-4.22197e-26
-2.04396e-26
-1.44917e-26
-7.59414e-27
-3.68014e-27
-1.77522e-27
-8.66877e-28
4.99549e-29
1.08476e-28
1.22977e-28
1.18004e-28
8.99441e-29
6.32997e-29
3.96157e-29
2.35399e-29
1.31037e-29
7.25907e-30
3.65021e-30
1.94712e-30
1.02911e-30
4.04038e-31
1.6429e-31
3.3674e-32
1.42128e-32
5.57456e-33
4.24239e-34
-2.54516e-33
-2.05351e-33
-6.77535e-34
0
-6.48005e-31
0
-3.46735e-28
5.7187e-27
4.68551e-58
9.09217e-27
-2.11333e-25
6.51335e-24
-3.17315e-21
3.13662e-20
2.37257e-18
3.02435e-17
1.86069e-16
6.00544e-16
1.28267e-15
1.9578e-15
2.41179e-15
2.66127e-15
2.78028e-15
2.87671e-15
3.02563e-15
3.11911e-15
2.98838e-15
2.52385e-15
1.86714e-15
1.20728e-15
6.85913e-16
3.39905e-16
1.4949e-16
5.8605e-17
2.06774e-17
6.37343e-18
1.58017e-18
2.83087e-19
3.50173e-20
1.87395e-21
-2.07154e-23
-6.74214e-24
-7.39336e-27
1.27477e-26
-2.44673e-28
-5.53808e-30
3.24967e-31
-7.26036e-33
1.44298e-34
-2.97954e-36
3.69587e-38
1.13197e-40
-1.75949e-41
2.21789e-43
2.25911e-45
2.27026e-48
8.85023e-52
-3.09337e-07
-3.48282e-55
-0.000322932
4.47794e-05
-7.96554e-05
9.79691e-07
-1.32204e-06
3.04793e-06
-3.22613e-06
-6.32966e-06
1.56361e-05
1.28985e-05
-0.000127195
-0.000371676
4.44464e-07
-0.000442206
8.74901e-07
-4.32939e-07
-2.83036e-07
-1.85424e-07
-2.05458e-07
-2.09651e-07
-2.20416e-07
-6.09244e-07
1.13507e-06
-5.82781e-07
0
0
0
0
0
0
0
-1.30546e-46
-8.85822e-37
-4.94081e-34
-3.24558e-31
8.2673e-30
1.30969e-27
1.84736e-27
-2.12619e-27
-4.14118e-27
-5.07372e-27
-6.8926e-27
7.24264e-27
9.74029e-27
1.35741e-26
3.05896e-27
-1.12741e-25
2.35635e-25
4.43527e-25
-4.27904e-24
3.23366e-26
-2.40213e-23
-1.75051e-23
-1.18513e-23
-1.00513e-23
1.88136e-23
4e-23
5.1544e-23
-1.26522e-23
-3.15742e-23
2.02813e-23
-7.0966e-23
-1.3552e-22
-9.4816e-23
-9.20254e-23
-2.53816e-23
1.21362e-22
7.97751e-23
9.75247e-23
8.84249e-23
9.1522e-23
6.28233e-23
5.54796e-23
3.29359e-23
-1.24944e-23
1.5275e-23
1.13177e-24
3.11722e-24
-3.1418e-24
-4.20943e-24
-2.56756e-24
-1.98166e-24
-2.63818e-26
-8.05038e-25
-4.2382e-25
-1.36308e-25
-1.81575e-25
9.0426e-26
-4.76463e-26
-1.95771e-26
5.95428e-27
-2.76578e-27
-4.43636e-27
2.55491e-27
-1.85857e-27
2.18659e-28
1.06704e-27
6.49914e-28
-3.47113e-28
4.30633e-28
7.08916e-29
4.20308e-29
7.17513e-29
2.74511e-29
3.18369e-29
1.97853e-29
1.00327e-29
5.87926e-30
2.96812e-30
1.30816e-30
5.95873e-31
4.27655e-31
6.0062e-32
-4.6586e-34
-3.23972e-32
-2.24857e-32
-6.78086e-33
-6.99515e-33
-5.54072e-33
-5.1905e-34
-2.69972e-33
1.84479e-31
1.6751e-23
-1.21831e-21
-9.0871e-21
9.25896e-19
1.82082e-17
1.41718e-16
5.38594e-16
1.3058e-15
2.13532e-15
2.74174e-15
3.08145e-15
3.24785e-15
3.3514e-15
3.52021e-15
3.66485e-15
3.61337e-15
3.14587e-15
2.39573e-15
1.59389e-15
9.33668e-16
4.72902e-16
2.1547e-16
8.56275e-17
3.06229e-17
9.81048e-18
2.55207e-18
4.87926e-19
6.46562e-20
3.94827e-21
4.36096e-24
-1.32372e-23
-1.39995e-25
2.74484e-26
-3.23754e-28
-1.72086e-29
7.44257e-31
-1.58382e-32
3.17234e-34
-6.46984e-36
9.58116e-38
-2.53453e-40
-3.42519e-41
5.66809e-43
4.73782e-45
4.57051e-48
1.78901e-51
-9.90604e-55
-3.96785e-07
-1.64421e-06
2.20272e-06
1.10068e-07
-6.93289e-06
7.19279e-06
2.65729e-05
-4.17093e-05
-0.000289815
-0.000455007
-9.14323e-08
-6.11442e-07
-4.19841e-07
-4.27747e-07
-4.29752e-07
-4.24319e-07
-4.79331e-07
-1.46772e-07
-7.6575e-07
2.80663e-07
0
0
0
0
0
0
0
-3.81049e-37
1.08665e-34
-2.45631e-31
6.22797e-31
6.08677e-28
1.04804e-27
-1.31036e-27
1.9297e-27
-3.90957e-27
-4.83302e-27
2.33028e-27
9.34254e-27
1.29854e-26
3.09905e-27
-1.74075e-26
-1.03127e-25
-7.50027e-25
1.76184e-24
1.61363e-24
-4.57329e-24
-1.06934e-23
-1.12798e-23
3.86256e-24
-3.75773e-23
-1.97953e-24
-2.79378e-23
-3.5708e-23
3.74973e-23
-3.66106e-23
-5.94761e-23
-1.68569e-22
-8.84372e-23
-1.82669e-22
-5.02128e-23
1.24734e-22
5.13939e-23
7.4385e-23
9.88612e-23
8.68737e-23
5.38698e-23
3.43897e-23
2.61623e-23
1.85434e-24
2.02364e-23
9.55861e-25
2.71995e-24
-8.1359e-25
-4.18136e-24
-2.9728e-24
-1.71892e-24
-4.40751e-25
-7.08165e-25
-4.78955e-25
6.82523e-26
-8.89666e-26
4.48273e-26
-1.06024e-25
-3.23077e-26
7.05484e-27
-9.56165e-27
-1.4309e-27
-1.83281e-27
2.37962e-27
4.40537e-29
2.04944e-27
6.94182e-28
-4.46391e-28
3.7266e-28
4.67909e-29
4.66704e-30
4.34465e-29
3.9793e-29
4.51612e-29
2.17535e-29
1.27049e-29
7.1713e-30
4.06905e-30
1.61476e-30
9.1438e-31
5.34508e-31
5.06088e-32
1.84163e-32
-4.81135e-32
-2.34042e-32
-7.73403e-33
-5.71503e-33
-3.86725e-33
-2.23392e-33
-2.57779e-33
-2.30461e-32
9.72479e-20
4.97214e-18
5.45704e-17
2.97106e-16
8.85474e-16
1.73247e-15
2.48414e-15
2.94413e-15
3.19499e-15
3.29523e-15
3.42717e-15
3.59989e-15
3.67387e-15
3.4304e-15
2.79295e-15
1.98201e-15
1.24277e-15
6.72214e-16
3.24349e-16
1.36698e-16
5.17582e-17
1.78719e-17
5.17356e-18
1.15071e-18
1.86415e-19
1.74932e-20
6.41545e-22
-3.69284e-23
-2.52385e-24
7.59499e-26
3.10717e-27
-1.68295e-28
2.14221e-30
-8.23714e-34
-1.65802e-34
3.20562e-36
1.06419e-37
-1.41975e-38
3.72473e-40
-9.04693e-43
-6.89497e-44
-1.84458e-46
-7.57496e-50
-2.30627e-53
1.55699e-57
7.74162e-08
1.51942e-07
3.16549e-06
-2.88372e-06
-1.45276e-06
2.27912e-05
1.00613e-05
-0.000142469
-0.000417676
-0.000278708
-5.34464e-07
-4.5295e-07
-4.18728e-07
-4.24713e-07
-4.34804e-07
-4.11391e-07
-5.07451e-07
-9.16078e-07
3.10256e-07
-2.4559e-07
0
-1.43962e-25
-6.30586e-21
-2.05561e-23
-9.1944e-26
1.39932e-06
0
0
0
0
0
0
0
0
0
0
0
0
0
0
0
0
0
0
0
0
0
0
0
0
0
0
0
0
0
0
0
0
0
0
0
0
0
0
0
0
0
0
0
0
0
0
0
0
0
0
0
0
0
0
0
0
0
0
0
0
0
0
0
0
0
0
0
0
0
0
0
0
0
0
0
0
0
0
0
0
0
0
0
0
0
0
0
0
0
0
0
0
0
0
0
0
0
0
0
0
0
0
0
0
0
0
0
0
0
0
0
0
0
0
0
0
0
0
0
0
0
0
0
0
0
0
0
0
0
0
0
0
0
0
0
0
0
0
0
0
0
0
0
0
0
0
0
0
0
0
0
0
0
0
0
0
0
0
0
0
0
0
0
0
0
0
0
0
0
0
0
0
0
0
0
0
0
0
0
0
0
0
0
0
0
0
0
0
0
0
0
0
0
0
0
0
-1.6641e-25
9.69048e-27
1.63954e-26
1.93001e-23
0
0
0
0
0
1.39754e-38
-1.31866e-34
2.44251e-30
-7.22076e-30
-4.11894e-28
7.34598e-27
-2.45242e-26
-8.98044e-26
-5.95229e-26
-4.31225e-26
-8.41583e-26
-1.42998e-25
-1.51537e-25
-9.62426e-26
2.67607e-25
7.96582e-25
7.08058e-24
-5.80859e-23
-6.14213e-23
-7.41442e-23
-1.05561e-22
1.54868e-23
7.29761e-23
5.67124e-22
2.24274e-22
5.4153e-22
7.05614e-22
2.57626e-22
1.30465e-21
2.18715e-21
2.62395e-21
1.0002e-21
-1.00495e-21
-2.41553e-21
-3.89356e-21
-2.55106e-21
-2.47532e-21
-1.98188e-21
-4.73363e-22
-5.75319e-22
4.44698e-22
5.98236e-22
8.52794e-22
8.24363e-22
7.87217e-22
6.0272e-22
4.01366e-22
2.60532e-22
9.29501e-23
4.50128e-23
1.30712e-24
-3.56615e-23
-3.47177e-23
-3.02885e-23
-2.33114e-23
-1.59372e-23
-8.46031e-24
-5.59402e-24
-3.49416e-24
-7.65121e-25
-3.90419e-25
-5.85579e-26
1.70272e-25
1.90856e-25
1.40001e-25
1.05556e-25
7.2886e-26
3.96079e-26
2.62919e-26
1.26343e-26
6.19323e-27
3.55714e-27
1.0795e-27
5.98264e-28
2.33254e-28
-3.4567e-29
-1.57598e-29
-4.29302e-29
-2.77666e-29
-1.78908e-29
-1.61844e-29
-9.20297e-30
-5.48301e-30
-3.18088e-30
-1.73019e-30
-9.28729e-31
-4.93141e-31
-2.48278e-31
-6.86812e-32
-5.32976e-32
3.87926e-30
1.21546e-19
0
8.38547e-30
0
0
0
0
0
0
0
0
0
0
0
0
0
0
0
0
0
0
0
0
0
0
0
0
0
0
0
0
0
0
0
0
0
0
0
0
0
0
0
0
0
0
0
0
0
0
0
0
0
0
0
0
0
0
0
0
0
0
0
0
0
0
0
0
0
0
0
0
0
0
0
0
0
0
0
0
0
0
0
0
0
0
1.24362e-119
1.57289e-119
4.94969e-118
-2.50726e-118
8.98862e-116
9.53247e-116
1.70187e-115
7.629e-116
1.22749e-115
4.73448e-116
3.1569e-115
-9.17327e-115
9.02959e-115
-1.8079e-114
5.2992e-112
5.81994e-112
8.36605e-112
1.84237e-112
8.52796e-110
9.00747e-110
1.32061e-109
1.39092e-109
8.93853e-110
8.79574e-110
1.83206e-109
8.81647e-110
3.86371e-109
3.92012e-109
2.79018e-109
3.05531e-109
8.59918e-109
7.75718e-109
6.25235e-109
3.68321e-109
3.23568e-108
4.26642e-108
4.58958e-106
5.52113e-106
1.65449e-105
-6.01496e-105
2.1797e-105
-3.1685e-105
5.69609e-103
-9.30165e-105
2.42934e-100
2.94787e-100
4.32763e-99
-1.91882e-98
1.08207e-98
-1.01189e-98
1.58065e-96
1.79353e-96
1.50492e-96
1.63567e-96
1.12692e-96
1.02587e-96
3.71631e-95
3.99828e-95
4.71492e-95
5.11275e-95
5.35824e-95
-3.77066e-95
4.50783e-94
4.88463e-94
7.22439e-93
7.30138e-93
8.68587e-91
1.02401e-90
5.56098e-91
6.76712e-91
3.7208e-90
4.22039e-90
2.64033e-90
2.67651e-90
-4.84588e-89
1.58592e-89
-3.92957e-87
-2.09047e-87
-5.09468e-86
-9.50948e-86
2.47447e-85
-5.7601e-85
1.05615e-83
3.70902e-84
2.34588e-83
1.20439e-83
2.04641e-83
-2.78634e-84
5.93936e-83
-5.23353e-83
1.15272e-82
4.10188e-83
9.44085e-83
1.45817e-83
4.52864e-82
2.85421e-82
4.28366e-82
3.12402e-82
2.96619e-82
2.30712e-82
2.75939e-82
-1.79124e-82
8.72541e-82
2.84925e-82
1.8461e-81
6.26938e-82
3.73246e-81
2.50744e-81
1.19661e-80
3.83781e-81
8.65894e-81
2.67122e-81
6.86917e-81
1.86696e-81
2.09328e-80
1.50677e-80
1.71638e-80
9.02583e-81
1.5996e-80
-1.18474e-81
1.55659e-79
2.16879e-80
2.57022e-79
6.09833e-80
3.15405e-79
-2.68548e-79
2.98661e-79
-2.12072e-79
4.42394e-79
5.81378e-80
1.11526e-78
-1.62771e-78
7.62068e-78
4.64305e-78
5.70001e-78
1.54333e-78
4.40955e-78
7.24568e-79
3.58914e-78
2.88716e-79
1.25483e-77
8.19401e-78
1.06232e-77
6.52858e-78
7.90533e-78
4.44683e-78
1.44447e-77
7.26007e-78
1.83439e-77
1.19761e-77
1.39474e-77
5.4363e-78
2.05493e-77
-3.24072e-78
3.20823e-77
1.7877e-77
3.04456e-77
-1.92637e-78
7.26681e-77
6.46387e-77
4.93299e-77
3.6862e-77
3.33623e-77
2.40774e-77
2.29286e-77
1.45467e-77
1.99411e-77
1.39767e-77
2.40114e-77
1.85156e-77
1.78907e-77
9.40505e-78
4.37933e-77
1.59566e-77
5.48204e-77
2.29872e-77
4.2292e-77
1.19504e-77
5.04767e-77
-8.92359e-78
7.21384e-77
3.10805e-77
6.86646e-77
-1.38821e-77
1.0023e-76
5.97104e-77
7.31591e-77
3.43093e-77
5.35258e-77
1.94595e-77
4.60281e-77
1.18e-77
3.51173e-77
6.35826e-78
2.83619e-77
9.18792e-79
5.38619e-77
3.02716e-77
4.18961e-77
8.6092e-78
4.24287e-77
1.99238e-77
3.14255e-77
1.10713e-77
5.17799e-77
2.97378e-77
3.99182e-77
2.35487e-77
2.84319e-77
1.77265e-77
2.92551e-77
1.67942e-77
2.30982e-77
1.24819e-77
1.96155e-77
-5.32411e-80
2.24128e-77
1.13107e-77
2.24721e-77
1.7132e-77
1.55377e-77
1.15751e-77
1.36207e-77
1.14523e-77
9.51711e-78
6.80188e-78
8.97528e-78
7.3487e-78
5.99864e-78
4.38932e-78
8.75612e-78
6.26024e-78
6.78534e-78
4.52229e-78
4.80861e-78
3.02038e-78
5.2501e-78
2.78068e-78
5.17907e-78
3.19767e-78
3.70568e-78
2.05671e-78
3.24449e-78
4.3306e-79
2.91755e-78
1.16869e-78
2.40212e-78
3.94388e-79
1.77642e-78
3.32784e-79
1.58859e-78
2.42293e-79
1.19098e-78
1.9076e-79
8.88622e-79
1.82917e-79
8.14976e-79
2.26524e-79
8.64426e-79
4.08955e-79
6.44896e-79
2.6836e-79
6.22916e-79
1.12517e-79
5.64354e-79
1.73519e-79
4.26195e-79
1.56834e-79
3.34544e-79
7.69658e-80
2.62768e-79
1.11359e-79
1.86452e-79
7.17863e-80
1.48634e-79
3.81573e-80
1.1579e-79
4.0397e-80
8.45843e-80
4.23979e-80
5.94223e-80
3.25463e-80
4.27508e-80
2.29245e-80
3.07854e-80
1.183e-80
4.68398e-80
4.20044e-80
7.24481e-78
-4.72197e-79
-8.80479e-74
3.19491e-75
-2.49963e-72
2.19173e-71
3.97447e-69
5.63682e-69
1.04247e-69
9.99933e-69
-1.77528e-69
8.5312e-69
-9.5831e-69
2.09469e-68
-3.67956e-66
-2.67846e-66
-1.45365e-63
3.2458e-64
-8.02283e-62
4.88205e-62
1.51999e-60
1.53309e-60
2.8416e-59
2.99841e-59
3.14805e-59
1.27793e-57
2.0541e-59
-7.41196e-21
3.54246e-09
4.61616e-07
9.7302e-08
-1.46874e-21
-3.41817e-21
5.38304e-27
-3.6277e-25
8.83685e-25
-9.73658e-21
-1.37797e-20
-3.82084e-21
-3.27596e-23
-1.63103e-22
5.92603e-18
6.4772e-17
3.50682e-16
1.04413e-15
2.04264e-15
2.92741e-15
3.469e-15
3.7705e-15
3.87872e-15
4.04057e-15
4.23788e-15
4.32527e-15
4.03873e-15
3.28276e-15
2.3291e-15
1.46141e-15
7.91355e-16
3.81364e-16
1.60762e-16
6.08059e-17
2.09394e-17
6.06203e-18
1.35515e-18
2.19698e-19
2.07653e-20
7.72462e-22
-4.23938e-23
-3.02301e-24
8.64692e-26
3.77774e-27
-1.96076e-28
2.35515e-30
4.06633e-33
-2.75631e-34
5.15502e-36
9.66681e-38
-1.57355e-38
4.21621e-40
-1.09545e-42
-7.70004e-44
-2.02324e-46
-8.07361e-50
-2.27557e-53
-1.03623e-54
-2.404e-54
3.05131e-57
-8.94633e-07
-2.8352e-07
9.63547e-05
2.52947e-06
-6.98723e-07
8.16494e-07
-1.19489e-06
-3.98745e-07
-1.01613e-06
-5.34935e-07
1.09866e-07
3.09335e-07
8.84524e-07
2.47454e-06
-4.36834e-07
2.65007e-06
-2.63734e-06
2.23935e-06
-4.2526e-06
7.02619e-07
3.59124e-08
2.48435e-06
5.80706e-06
9.86063e-06
1.11782e-05
1.98e-05
6.27042e-06
2.90948e-05
-2.1353e-05
2.82666e-05
-7.7683e-05
6.31038e-06
-0.000158786
-4.09869e-05
-0.000231113
-0.000117501
-0.000235918
-0.000244087
0.000305738
0.00162257
0.00164696
0.00152435
0.0016471
0.00171771
0.00131906
0.00144108
0.00107031
0.00110274
0.00174169
0.00137315
0.00211447
0.00199144
0.00169573
0.00191787
0.00157955
0.00159747
0.00179631
0.00168622
0.00173841
0.00177698
0.00169627
0.00169752
0.00187584
0.00176952
0.00199069
0.00197297
0.00141011
0.00166848
0.00134794
0.00137156
0.00163499
0.00144389
0.00130015
0.00080806
0.0014197
0
-3.27388e-07
4.58668e-07
6.53848e-07
-5.60993e-07
1.05157e-05
2.10049e-06
-9.34221e-05
-0.000230611
-0.000200031
-2.74642e-07
-5.14469e-08
-5.16679e-07
-4.30975e-07
1.49317e-07
8.93996e-08
-4.15217e-08
-2.73409e-08
2.33863e-09
-5.74784e-09
-1.66448e-07
-1.72412e-08
-2.07373e-07
9.83913e-08
0
0
0
8.31346e-07
2.73806e-06
-1.06672e-06
0.00123423
0.00142454
0.000555121
-1.03528e-07
2.15122e-07
-0.00013268
-0.000353273
1.18393e-07
-3.0463e-08
8.4722e-30
0
0
-4.0871e-28
4.06872e-23
0
-3.54256e-28
0
0
0
0
0
-1.84167e-35
-1.48417e-32
-1.0748e-29
4.33674e-29
1.63576e-26
3.40968e-26
-5.70479e-26
-1.0804e-25
-9.13461e-26
-7.94879e-26
-7.90308e-26
-1.86314e-25
-1.51885e-25
6.73788e-26
3.03278e-26
-1.36963e-24
-1.42814e-23
-5.60322e-23
-1.90631e-22
-9.80084e-23
-3.02491e-22
-2.491e-22
8.12182e-23
4.95108e-23
7.15449e-23
2.53043e-22
7.40625e-22
1.90197e-21
9.15366e-22
1.86949e-21
1.96282e-21
5.63055e-22
-2.04815e-21
-2.85007e-21
-3.08051e-21
-2.88616e-21
-1.74276e-21
-1.77448e-22
-5.39495e-22
3.22608e-22
6.45111e-22
9.17146e-22
9.52804e-22
8.54583e-22
6.48311e-22
4.2998e-22
3.57108e-22
1.18844e-22
7.24287e-23
8.37207e-24
-3.4656e-23
-3.81037e-23
-3.15856e-23
-2.62762e-23
-1.92335e-23
-1.16631e-23
-7.18192e-24
-4.50768e-24
-1.74124e-24
-5.61346e-25
-2.39232e-25
1.76827e-25
1.70591e-25
1.58507e-25
1.23387e-25
8.61693e-26
5.15539e-26
3.22068e-26
1.60328e-26
7.97292e-27
4.59156e-27
2.04743e-27
8.31576e-28
2.76709e-28
-6.07098e-30
-2.6746e-29
-5.3271e-29
-3.4301e-29
-2.19169e-29
-1.8976e-29
-1.22457e-29
-7.43461e-30
-4.47651e-30
-2.34594e-30
-1.27501e-30
-6.7491e-31
-3.42232e-31
-1.47676e-31
-5.43458e-32
-6.59145e-31
0
0
0
0
-0.000402791
1.12327e-18
2.15963e-17
1.67272e-16
6.36711e-16
1.5391e-15
2.5185e-15
3.23121e-15
3.63352e-15
3.83247e-15
3.94744e-15
4.14761e-15
4.31539e-15
4.25391e-15
3.69816e-15
2.81713e-15
1.87172e-15
1.09908e-15
5.56749e-16
2.53252e-16
1.00453e-16
3.59651e-17
1.15239e-17
2.99566e-18
5.73885e-19
7.60063e-20
4.69883e-21
1.11755e-23
-1.55416e-23
-1.81911e-25
3.21565e-26
-3.51593e-28
-2.0901e-29
8.64027e-31
-1.8079e-32
3.60348e-34
-7.43926e-36
1.10706e-37
-3.25172e-40
-3.7951e-41
6.41621e-43
5.28233e-45
4.957e-48
1.88318e-51
0
-2.61396e-07
0.000253266
0.000221999
1.14891e-07
0
2.31485e-08
4.33606e-07
-2.77563e-06
1.71756e-06
1.27467e-05
-3.25241e-05
-0.000175817
-0.000327627
-0.000264866
1.9321e-07
-4.84927e-08
-7.41041e-08
1.27371e-08
1.95421e-07
2.32501e-07
-7.78578e-09
-1.5942e-09
-7.96332e-09
1.1668e-07
-7.27515e-07
1.87823e-07
3.46255e-07
0
-3.69292e-28
0
-5.11847e-07
-1.6694e-07
3.11842e-07
2.54625e-07
1.92033e-07
-0.000202093
-1.91733e-05
2.43854e-05
8.69354e-06
-8.51267e-07
1.11862e-06
-3.72735e-53
-1.52833e-49
-4.34815e-46
-1.67183e-43
-4.2596e-42
9.7197e-40
-2.98458e-38
-1.79826e-37
3.33354e-35
-1.72527e-33
6.9748e-32
2.79559e-30
-3.93571e-28
9.45253e-27
1.18326e-25
-6.74715e-24
-6.32946e-23
1.76325e-21
3.99676e-20
3.74258e-19
2.21212e-18
9.20593e-18
3.05117e-17
8.77997e-17
2.28594e-16
5.24827e-16
1.06966e-15
1.90703e-15
2.97782e-15
4.03114e-15
4.80662e-15
5.02738e-15
4.84941e-15
4.61653e-15
4.46302e-15
4.28431e-15
3.89925e-15
3.18563e-15
2.0749e-15
9.38002e-16
7.16988e-30
1.06705e-31
-1.93131e-33
-1.46314e-31
-3.28804e-31
-6.23801e-31
-1.25348e-30
-2.45584e-30
-4.19522e-30
-7.13435e-30
-1.36993e-29
-1.54539e-29
-2.38642e-29
-5.03144e-29
-1.10147e-28
-1.95372e-28
-2.60216e-28
-1.93623e-28
-4.92873e-28
1.26724e-28
1.81917e-28
2.67445e-27
7.13588e-27
5.49345e-27
2.05082e-26
3.36905e-26
1.74004e-26
1.08405e-25
7.73079e-26
-8.51168e-26
1.15503e-25
9.25951e-26
-7.48477e-25
-1.0258e-24
4.35251e-25
1.97163e-24
1.52345e-24
3.44291e-24
6.35298e-24
4.77143e-24
1.42932e-24
-3.30233e-24
4.48281e-24
-1.62793e-22
-2.12856e-22
-4.31388e-22
-5.69157e-22
-8.55172e-22
-1.02751e-21
-4.82981e-22
-4.36914e-22
6.58051e-22
1.26901e-21
1.68168e-21
1.51414e-21
3.65775e-21
3.77212e-21
3.63378e-21
4.25223e-21
1.45606e-21
-2.97788e-21
2.88501e-30
3.43709e-30
-6.25729e-21
-1.28022e-21
-1.74993e-21
-2.87563e-21
-1.70654e-21
-1.21496e-21
3.86295e-22
-1.62823e-22
2.49092e-22
7.56889e-22
4.00362e-22
1.94e-22
9.54424e-23
-1.75276e-23
1.59558e-24
-8.30699e-25
-1.49216e-25
2.62092e-25
2.37884e-25
1.22081e-25
2.75271e-25
1.6747e-25
1.6167e-25
2.44503e-25
-2.70951e-26
-8.35609e-08
-8.24711e-09
4.09647e-07
1.0183e-07
2.0839e-07
2.08053e-07
1.99723e-07
-0.000147028
-0.000320341
-8.84691e-05
1.47414e-05
1.78292e-05
2.75663e-07
3.3699e-07
3.62419e-51
9.97665e-48
1.11621e-44
1.55012e-42
-7.18119e-41
-1.85731e-39
2.81143e-37
-1.5939e-35
7.38175e-34
-3.79303e-32
1.84453e-30
-5.40006e-29
-2.56102e-28
6.4401e-26
-6.25251e-25
-2.9044e-23
1.18033e-22
9.42533e-21
1.34847e-19
9.56957e-19
4.67262e-18
1.74118e-17
5.27874e-17
1.43195e-16
3.51493e-16
7.61781e-16
1.4634e-15
2.41541e-15
3.52586e-15
4.46687e-15
4.96613e-15
4.95791e-15
4.71986e-15
4.52642e-15
4.39714e-15
4.12304e-15
3.58667e-15
2.64837e-15
1.47075e-15
0
3.17724e-19
2.2549e-31
-2.94264e-32
-5.98944e-32
-2.22675e-31
-4.61122e-31
-9.49124e-31
-1.73817e-30
-3.74504e-30
-6.0228e-30
-1.0317e-29
-1.44398e-29
-1.87082e-29
-4.16547e-29
-1.21708e-28
-1.47132e-28
-1.90499e-28
-3.95329e-28
-3.48741e-28
1.84018e-28
3.16681e-28
1.36627e-28
2.29949e-27
6.8312e-27
1.23273e-26
2.41822e-26
2.47948e-26
4.75164e-26
2.93816e-26
4.78496e-26
-2.03398e-26
7.02273e-26
-8.70473e-25
-3.66095e-25
2.43368e-26
-2.21467e-24
-2.21554e-25
9.74909e-25
6.95116e-24
4.32095e-24
1.49282e-24
-2.45156e-23
-1.37492e-23
-1.99276e-22
-9.24852e-23
-2.69765e-22
-4.7226e-22
-6.95726e-22
-7.19472e-22
-7.35665e-22
9.28101e-23
1.01042e-21
1.21977e-21
3.17617e-21
2.57972e-21
2.23294e-21
2.25137e-21
4.71676e-21
5.20586e-21
3.92173e-21
1.17314e-21
-2.4341e-21
-3.88466e-21
-2.57179e-21
1.11959e-21
1.89892e-22
-7.69866e-22
6.18944e-22
-9.36034e-22
-4.45111e-22
-9.09911e-23
2.11842e-22
-3.48867e-23
4.70121e-22
6.49824e-23
-1.32043e-23
-1.41031e-24
-3.10625e-25
8.9401e-26
1.92804e-25
2.43437e-25
4.93628e-34
1.34614e-25
1.1747e-25
4.90999e-26
1.92047e-25
4.77453e-26
3.0803e-26
-1.24864e-28
-3.66396e-29
6.17584e-33
-2.31911e-35
0
3.05784e-46
0
0
0
2.74533e-16
3.90814e-17
2.40578e-18
1.15134e-17
1.14302e-16
5.39003e-16
4.16433e-07
4.52244e-07
-6.26349e-07
2.75298e-07
1.94419e-07
1.96303e-07
2.02097e-07
0
0
0
0
0
0
0
0
0
0
0
0
0
0
0
0
0
0
0
0
0
0
0
0
0
0
0
0
0
0
0
0
0
0
0
0
0
0
0
0
0
0
0
0
0
0
0
0
0
0
0
0
0
0
0
0
0
0
0
0
0
0
0
0
0
0
0
0
0
0
0
0
0
0
0
0
0
0
0
0
0
0
0
0
0
0
0
0
0
0
0
0
0
0
0
0
0
0
0
0
0
0
0
0
0
0
0
0
0
0
0
0
0
0
0
0
0
0
0
0
0
0
0
0
0
0
0
0
0
0
0
0
0
0
0
0
0
0
0
0
0
0
0
0
0
0
0
0
0
0
0
0
0
0
0
0
0
0
0
0
0
0
0
0
0
0
0
0
0
0
0
0
0
0
0
0
0
0
0
0
0
0
0
0
0
0
0
0
0
0
1.66452e-26
4.61434e-23
3.25582e-16
5.84576e-07
0
0
0
0
0
0
1.58564e-44
0
0
4.91829e-24
-5.72277e-20
3.73496e-30
-1.3981e-27
0
0
-7.43837e-27
2.27768e-08
5.61826e-25
3.72055e-25
1.76729e-24
3.28941e-25
-5.03142e-25
4.45254e-25
-9.69615e-24
1.27712e-24
2.37697e-31
3.42962e-30
7.62656e-25
2.7954e-24
8.81449e-24
8.75068e-24
-7.59628e-24
-1.2541e-22
4.43444e-22
1.59083e-21
1.99412e-21
-2.819e-21
-7.62991e-22
-7.79057e-22
-6.33943e-21
1.21801e-20
1.18946e-20
2.94103e-21
-6.79333e-21
-4.52436e-20
-2.22407e-20
1.42163e-19
1.23704e-26
7.36641e-26
-7.329e-20
-6.77882e-20
-1.88958e-20
-3.12018e-20
2.16455e-20
4.13348e-20
3.59043e-20
6.62115e-20
5.98976e-20
6.31702e-20
4.20691e-20
4.21908e-20
1.49928e-20
-3.55176e-21
-3.35865e-21
-7.13964e-21
-7.39726e-21
-7.40114e-21
-4.85118e-21
-3.70728e-21
-2.70958e-21
-1.20616e-21
-5.88314e-22
-2.03584e-22
-7.76023e-23
8.06674e-23
1.22594e-22
9.46576e-23
7.60903e-23
4.45914e-23
3.09316e-23
1.67367e-23
8.67206e-24
4.70292e-24
8.57611e-25
4.11871e-25
1.18303e-25
-2.15475e-25
-1.99842e-25
-1.6992e-25
-1.07266e-25
-6.96285e-26
-4.87819e-26
-2.81094e-26
-1.65562e-26
-9.04766e-27
-5.04104e-27
-2.24522e-27
-1.11388e-27
-5.91632e-28
-2.6147e-28
-1.12023e-28
-5.42678e-29
-2.13334e-29
-1.07891e-29
1.06505e-31
2.23755e-31
3.51643e-31
1.62642e-30
1.6089e-30
0
0
0
0
0
0
0
0
0
0
0
0
0
0
0
0
0
0
0
0
0
0
0
0
0
0
0
0
0
0
0
0
0
0
0
0
0
0
0
0
0
0
0
0
0
0
0
0
0
0
0
0
0
0
0
0
0
0
0
0
0
0
0
0
0
0
0
0
0
0
0
0
0
0
0
0
0
0
0
0
0
0
7.83883e-118
0
2.97165e-117
-2.09628e-116
6.61246e-114
-2.84529e-113
6.5498e-114
-1.7158e-113
1.76647e-113
-4.95692e-113
5.26562e-112
2.79144e-112
5.46771e-113
-7.25157e-112
4.27671e-110
-1.80764e-109
1.88085e-109
-5.98965e-109
6.80707e-108
7.62026e-108
9.28452e-108
-1.24202e-107
8.96466e-108
-4.52312e-108
4.27657e-107
4.24997e-107
3.36747e-107
1.54165e-107
5.9704e-108
3.84155e-107
6.34563e-107
4.83086e-107
1.04269e-106
-2.33247e-106
-1.32285e-105
-1.06575e-105
2.02344e-104
-2.89712e-104
1.99353e-102
2.18457e-102
1.4495e-102
8.02591e-103
-1.91903e-102
5.11462e-103
4.38021e-98
4.7076e-99
1.39442e-95
1.5021e-95
1.10567e-95
2.92546e-96
1.1531e-94
1.26998e-94
1.60537e-94
-2.80272e-94
1.83241e-94
-2.23112e-94