/*--------------------------------*- C++ -*----------------------------------*\
  =========                 |
  \\      /  F ield         | OpenFOAM: The Open Source CFD Toolbox
   \\    /   O peration     | Website:  https://openfoam.org
    \\  /    A nd           | Version:  7
     \\/     M anipulation  |
\*---------------------------------------------------------------------------*/
FoamFile
{
    version     2.0;
    format      ascii;
    class       volScalarField;
    location    "0.12";
    object      T;
}
// * * * * * * * * * * * * * * * * * * * * * * * * * * * * * * * * * * * * * //

dimensions      [0 0 0 1 0 0 0];

internalField   nonuniform List<scalar> 
46572
(
0
0
0
0
0
0
0
0
0
0
0
0
0
0
0
0
0
0
0
0
0
0
0
0
0
0
0
0
0
0
0
0
0
0
0
0
0
0
0
0
0
0
0
0
0
0
0
0
0
0
0
0
0
0
0
0
0
0
0
0
0
0
0
0
0
0
0
0
0
0
0
0
0
0
0
0
0
0
0
0
0
0
0
0
0
0
0
0
0
0
0
0
0
0
0
0
0
0
0
0
0
0
0
0
0
0
0
0
0
0
0
0
0
0
0
0
0
0
0
0
0
0
0
0
0
0
0
0
0
0
0
0
0
0
0
0
0
0
0
0
0
0
0
0
0
0
0
0
0
0
0
0
0
0
0
0
0
0
0
0
0
0
0
0
0
0
0
0
0
0
0
0
0
0
0
0
0
0
0
0
0
0
0
0
0
0
0
0
0
0
0
0
0
0
0
0
0
0
0
0
0
0
0
0
0
0
0
0
0
0
0
0
0
0
0
0
0
0
0
0
0
0
0
0
0
0
0
0
0
0
0
0
0
0
0
0
0
0
0
0
0
0
0
0
0
0
0
0
0
0
0
0
0
0
0
0
0
0
0
0
0
0
0
0
0
0
0
0
0
0
0
0
0
0
0
0
0
0
0
0
0
0
0
0
0
0
0
0
0
0
0
0
0
0
0
0
0
0
0
0
0
0
0
0
0
0
0
0
0
0
0
0
0
0
0
0
0
0
0
0
0
0
0
0
0
0
0
0
0
0
0
0
0
0
0
0
0
0
0
0
0
0
0
0
0
0
0
0
0
0
0
0
0
0
0
0
0
0
0
0
0
0
0
0
0
2.47399e-142
3.09249e-142
3.20674e-142
4.00527e-142
1.00232e-141
1.17362e-141
7.21122e-142
5.75254e-142
2.51058e-140
3.11968e-140
1.85614e-140
1.06852e-140
2.78072e-139
3.39137e-139
1.77803e-139
2.16756e-139
1.19265e-139
1.17716e-139
6.73219e-139
-2.26529e-138
1.12696e-136
1.33534e-136
8.45327e-136
1.02367e-135
1.46845e-134
1.77271e-134
9.51037e-135
1.14865e-134
6.02216e-135
7.24173e-135
2.53111e-134
2.97378e-134
4.72646e-134
5.78976e-134
3.24602e-134
3.97686e-134
2.23276e-134
2.3465e-134
4.72128e-134
5.42465e-134
3.66651e-134
4.10901e-134
2.37709e-134
2.59712e-134
2.64923e-134
-2.5606e-134
1.93584e-132
2.08499e-132
1.35904e-130
1.55435e-130
8.91335e-131
1.01923e-130
6.04315e-131
6.94461e-131
4.06253e-131
4.51554e-131
7.08004e-130
7.94996e-130
1.46568e-129
1.76885e-129
9.28859e-130
1.11844e-129
6.1259e-130
6.28742e-130
1.42753e-129
1.61394e-129
1.66421e-129
1.96832e-129
2.66235e-129
2.80286e-129
2.33701e-129
-4.44395e-130
9.16915e-129
9.23106e-129
3.61501e-128
3.87552e-128
2.38375e-128
2.5598e-128
3.6383e-128
4.29486e-128
2.33887e-128
2.76189e-128
1.55504e-128
1.68204e-128
1.03971e-127
1.25988e-127
6.62313e-128
8.0122e-128
5.22814e-128
1.7184e-128
2.64353e-127
2.79099e-127
3.23342e-127
3.71253e-127
2.77931e-127
3.16792e-127
1.89203e-127
1.78716e-127
2.40719e-127
2.63726e-127
1.79623e-127
1.00667e-127
3.29791e-127
3.32271e-127
3.59063e-127
4.00846e-127
2.34302e-127
2.59246e-127
2.20982e-127
2.54892e-127
2.51889e-127
2.98315e-127
9.72173e-127
5.60801e-127
5.06247e-126
5.92681e-126
3.34548e-126
3.58785e-126
2.27093e-126
2.38744e-126
2.57594e-125
2.80923e-125
5.00286e-125
5.98835e-125
3.30722e-125
3.96509e-125
2.33216e-125
2.66024e-125
2.96602e-125
3.44078e-125
2.81205e-125
3.25679e-125
1.2172e-124
1.32946e-124
8.22579e-125
7.37636e-125
5.46739e-125
5.03101e-125
3.71454e-125
2.93107e-125
2.53467e-125
2.06591e-125
6.89695e-125
7.50331e-125
4.48662e-125
4.88143e-125
2.17288e-124
2.481e-124
3.92691e-124
4.7571e-124
2.49007e-124
3.01443e-124
1.60075e-124
1.8377e-124
1.83179e-124
2.13709e-124
1.73023e-124
2.07331e-124
1.27366e-124
1.51364e-124
8.27021e-125
9.24671e-125
2.25043e-124
2.7275e-124
1.31658e-124
1.59367e-124
9.96604e-125
1.21444e-124
1.80135e-124
2.18845e-124
1.12686e-124
1.37063e-124
6.61541e-125
7.8883e-125
1.46963e-124
1.80538e-124
9.27801e-125
1.1412e-124
5.37396e-125
6.38202e-125
4.83088e-125
5.75487e-125
3.95601e-125
4.79096e-125
2.62438e-125
3.19471e-125
1.55938e-125
1.86657e-125
2.74953e-125
3.39491e-125
1.66004e-125
2.00366e-125
1.46398e-125
1.77692e-125
9.14176e-126
1.11404e-125
5.31073e-126
6.46026e-126
2.93236e-126
3.55781e-126
4.04026e-126
4.96444e-126
1.71464e-125
2.06915e-125
1.02373e-125
1.23527e-125
6.20687e-126
7.51571e-126
3.63711e-126
4.4113e-126
8.80393e-126
1.07638e-125
1.54589e-125
1.91732e-125
9.63332e-126
1.19478e-125
5.49291e-126
6.79168e-126
2.81608e-126
3.48276e-126
1.62756e-126
2.01762e-126
1.42412e-125
1.24012e-126
9.22173e-120
5.06888e-120
1.62605e-116
2.02699e-116
9.87915e-117
1.22649e-116
1.92927e-115
4.48853e-34
2.76479e-34
-4.26707e-34
-1.38352e-34
-4.00616e-36
6.25305e-38
6.97898e-39
5.39039e-41
-2.58763e-42
-4.77853e-44
-1.57153e-46
4.53936e-48
3.40582e-50
9.50623e-53
-3.82419e-55
-1.90621e-57
7.86362e-60
1.75609e-61
1.5986e-63
5.82535e-66
6.58821e-69
1.21425e-71
1.31939e-73
9.94359e-76
2.56715e-78
9.80344e-82
9.72128e-87
2.56273e-95
3.64805e-103
5.77543e-110
5.61066e-34
0.107229
0.119319
0.0951817
0.0425743
-0.00871884
-0.0401105
-0.0474273
-0.0467743
-0.0378894
-0.0274239
-0.0185826
-0.0122775
-0.00755604
-0.00451526
-0.00259238
-0.00150671
-0.000839673
-0.00045341
-0.000241142
-0.000128161
-6.72267e-05
-3.41793e-05
-1.67768e-05
-8.40641e-06
-4.06632e-06
-1.93768e-06
-9.12933e-07
-4.33349e-07
-1.99595e-07
-9.17113e-08
-4.11924e-08
-1.88254e-08
-8.41607e-09
-3.66805e-09
-1.593e-09
-6.94331e-10
-3.01674e-10
-1.27707e-10
-5.2984e-11
-2.2234e-11
-9.08723e-12
-3.68389e-12
-1.4936e-12
-5.85723e-13
-2.35551e-13
-9.27655e-14
-3.60277e-14
-1.39715e-14
-5.33913e-15
-1.9988e-15
-7.45087e-16
-2.78724e-16
-1.03579e-16
-3.74375e-17
-1.33041e-17
-4.74848e-18
-1.65159e-18
-5.67653e-19
-1.94842e-19
-6.46596e-20
-2.17523e-20
-7.12657e-21
-2.28729e-21
-7.24676e-22
-2.27098e-22
-7.02007e-23
-2.10152e-23
-6.09503e-24
-1.75918e-24
-4.86465e-25
-1.30019e-25
-3.32096e-26
-8.17221e-27
-1.84434e-27
-3.83219e-28
-6.89009e-29
-1.01187e-29
-8.63982e-31
-2.80743e-34
2.10463e-33
6.90631e-34
0.00267218
-0.01111
0.016419
0.073077
0.126663
0.156528
0.166488
0.163711
0.150854
0.134278
0.110207
-0.0670006
-0.0073137
-0.00787008
-0.00707074
-0.0069554
-0.00699623
-0.00701661
-0.0070726
-0.00710752
-0.00706958
-0.00755063
0.00529363
-0.00645223
0.000214744
-0.0125679
-0.0123188
-0.00622664
-0.0141817
0.0107225
-0.00967549
0.0351714
-0.000187385
0.0631252
0.0112978
0.0885738
0.022491
0.112323
0.0296252
0.12859
0.0328822
0.14253
0.0315427
0.150277
0.0288903
0.15226
0.0213954
0.152714
0.0103706
0.149501
-0.000220026
0.145333
-0.0122912
0.137855
-0.0218287
0.133773
-0.0336743
0.132862
-0.0447305
0.118296
-0.0433418
0.0908431
-0.055342
0.104996
-0.0687525
0.106492
-0.0595091
0.10405
-0.0612704
0.087788
-0.0656325
0.0651672
-0.0753434
0.0399425
-0.0870216
0.0154803
-0.0971539
-0.00666226
-0.105509
-0.0250098
-0.10908
-0.0358969
-0.108174
-0.042316
-0.103564
-0.0468613
-0.0975619
-0.0470847
-0.0894602
-0.0456723
-0.0804228
-0.0425426
-0.0704522
-0.0369246
-0.059943
-0.0329543
-0.0508311
-0.0274308
-0.0418582
-0.0227348
-0.0340623
-0.0188841
-0.0276948
-0.01501
-0.0218486
-0.0121471
-0.0174217
-0.0097893
-0.0138258
-0.00771118
-0.0107928
-0.00602183
-0.00835404
-0.00463642
-0.0064087
-0.00356884
-0.00490003
-0.00273577
-0.00372181
-0.00203908
-0.00277674
-0.00155625
-0.0020966
-0.0011503
-0.00154929
-0.000850753
-0.00114316
-0.000635578
-0.000848568
-0.000471841
-0.000626951
-0.0003417
-0.000454536
-0.000252154
-0.000333437
-0.000183575
-0.000242054
-0.000133179
-0.000175046
-9.58621e-05
-0.000125781
-6.87601e-05
-9.02129e-05
-4.95286e-05
-6.46671e-05
-3.50145e-05
-4.57573e-05
-2.51866e-05
-3.27019e-05
-1.76125e-05
-2.29167e-05
-1.23469e-05
-1.60469e-05
-8.72503e-06
-1.13103e-05
-6.15168e-06
-7.9523e-06
-4.24272e-06
-5.49189e-06
-2.98647e-06
-3.84557e-06
-2.04933e-06
-2.6408e-06
-1.40387e-06
-1.81093e-06
-9.73189e-07
-1.2518e-06
-6.57627e-07
-8.46522e-07
-4.52724e-07
-5.82124e-07
-3.12381e-07
-4.00859e-07
-2.13181e-07
-2.73387e-07
-1.45081e-07
-1.85821e-07
-9.78913e-08
-1.25462e-07
-6.64166e-08
-8.50038e-08
-4.50812e-08
-5.75877e-08
-2.99739e-08
-3.83303e-08
-2.02956e-08
-2.58879e-08
-1.34451e-08
-1.71624e-08
-8.90794e-09
-1.13681e-08
-5.95875e-09
-7.58933e-09
-3.89078e-09
-4.96081e-09
-2.58764e-09
-3.29645e-09
-1.72418e-09
-2.19401e-09
-1.13829e-09
-1.4475e-09
-7.49235e-10
-9.52076e-10
-4.91316e-10
-6.24103e-10
-3.21024e-10
-4.07895e-10
-2.10817e-10
-2.67538e-10
-1.36531e-10
-1.733e-10
-8.95474e-11
-1.13436e-10
-5.75271e-11
-7.29388e-11
-3.70121e-11
-4.69083e-11
-2.3964e-11
-3.03483e-11
-1.55132e-11
-1.96295e-11
-9.85669e-12
-1.24792e-11
-6.36576e-12
-8.04815e-12
-4.07278e-12
-5.14699e-12
-2.59843e-12
-3.28268e-12
-1.65267e-12
-2.08786e-12
-1.04749e-12
-1.32302e-12
-6.67646e-13
-8.42657e-13
-4.20006e-13
-5.30055e-13
-2.66756e-13
-3.36276e-13
-1.66086e-13
-2.0947e-13
-1.03501e-13
-1.30515e-13
-6.49316e-14
-8.18294e-14
-4.07295e-14
-5.13053e-14
-2.51063e-14
-3.16317e-14
-1.57194e-14
-1.97897e-14
-9.66146e-15
-1.21654e-14
-5.92749e-15
-7.46284e-15
-3.66831e-15
-4.61545e-15
-2.22396e-15
-2.79862e-15
-1.3687e-15
-1.72178e-15
-8.43583e-16
-1.06074e-15
-5.15378e-16
-6.47877e-16
-3.13606e-16
-3.94114e-16
-1.89922e-16
-2.38647e-16
-1.15072e-16
-1.44566e-16
-6.98763e-17
-8.77504e-17
-4.16612e-17
-5.23198e-17
-2.52269e-17
-3.16609e-17
-1.49943e-17
-1.88203e-17
-8.89982e-18
-1.11686e-17
-5.32407e-18
-6.67912e-18
-3.16267e-18
-3.96675e-18
-1.85578e-18
-2.32744e-18
-1.10285e-18
-1.38264e-18
-6.49278e-19
-8.13851e-19
-3.80719e-19
-4.77116e-19
-2.22635e-19
-2.78968e-19
-1.29408e-19
-1.62121e-19
-7.56002e-20
-9.46886e-20
-4.35281e-20
-5.45111e-20
-2.52775e-20
-3.16471e-20
-1.44241e-20
-1.8057e-20
-8.20916e-21
-1.02751e-20
-4.68441e-21
-5.86209e-21
-2.66925e-21
-3.33974e-21
-1.49536e-21
-1.87075e-21
-8.4721e-22
-1.05969e-21
-4.74922e-22
-5.93953e-22
-2.64408e-22
-3.30635e-22
-1.46729e-22
-1.83459e-22
-8.08102e-23
-1.01028e-22
-4.46491e-23
-5.58141e-23
-2.42251e-23
-3.02808e-23
-1.30043e-23
-1.62547e-23
-7.07773e-24
-8.84688e-24
-3.80978e-24
-4.76215e-24
-2.0355e-24
-2.54436e-24
-1.08415e-24
-1.35519e-24
-5.64593e-25
-7.05742e-25
-2.9613e-25
-3.70163e-25
-1.5186e-25
-1.89825e-25
-7.68514e-26
-9.60642e-26
-3.89141e-26
-4.86426e-26
-1.91515e-26
-2.39394e-26
-9.42265e-27
-1.17783e-26
-4.56685e-27
-5.70856e-27
-2.15767e-27
-2.69709e-27
-9.93039e-28
-1.2413e-27
-4.45331e-28
-5.56663e-28
-1.91879e-28
-2.39849e-28
-8.0376e-29
-1.0047e-28
-3.14047e-29
-3.92559e-29
-1.14321e-29
-1.42902e-29
-3.58998e-30
-4.48747e-30
-8.60217e-31
-1.07527e-30
-9.97469e-32
-1.24684e-31
3.29019e-32
4.11274e-32
2.31921e-32
2.89901e-32
7.47448e-33
9.3431e-33
1.52937e-33
4.35323e-34
1.91172e-33
-5.26399e-52
-1.9654e-49
-3.38599e-46
-2.66623e-43
2.57619e-43
5.03684e-40
-4.18365e-38
-3.25869e-36
-8.67465e-35
2.17348e-35
5.68875e-34
2.40452e-34
1.06491e-33
0
0
0
0
0
0
0
0
0
0
0
0
0
0
0
0
0
0
3.31219e-41
1.77457e-39
3.72418e-37
1.72826e-37
5.00172e-36
3.17565e-36
1.57417e-36
1.12202e-36
5.0562e-37
2.48794e-37
1.29197e-36
1.3716e-36
4.2304e-35
3.85585e-35
2.07565e-35
1.21408e-35
1.55787e-35
2.02402e-35
6.65342e-35
4.14841e-35
9.51748e-35
5.2654e-35
3.78912e-35
3.48477e-35
2.51789e-35
1.33033e-35
2.17689e-35
5.81239e-35
1.45614e-34
7.00378e-35
4.10826e-35
2.45865e-35
1.7267e-35
1.42376e-35
1.70862e-35
8.41474e-36
9.6102e-36
5.1757e-36
2.79675e-36
1.89369e-36
9.12209e-37
3.98489e-37
2.77239e-37
1.15205e-37
4.5344e-38
1.97039e-38
9.22186e-39
5.00872e-39
1.96283e-39
7.55492e-40
3.64788e-40
1.36517e-40
5.70512e-41
1.83583e-41
5.98469e-42
1.52405e-42
4.02392e-43
1.99697e-43
-2.56834e-44
-3.98368e-44
-1.84026e-44
-7.60064e-45
-5.95578e-45
-4.77082e-45
-1.87861e-45
-8.87507e-46
-3.80041e-46
-1.72633e-46
-6.65229e-47
-2.46826e-47
-8.24856e-48
-2.90502e-48
-1.1245e-48
-5.47934e-49
-1.49971e-49
-3.661e-50
-7.4158e-51
-1.51546e-51
-3.63862e-52
-7.4201e-53
2.70725e-53
-6.57772e-52
2.41099e-115
-5.82147e-34
-1.99713e-34
1.41579e-34
-9.27349e-35
-4.62368e-34
-2.78623e-34
-2.78553e-35
-3.57574e-37
3.56889e-38
8.32448e-40
-5.56144e-42
-5.02657e-43
-3.57752e-45
1.21438e-47
4.93583e-49
2.542e-51
-3.11849e-54
-3.01193e-56
-2.78325e-59
1.41542e-60
1.75146e-62
1.18254e-64
2.12721e-67
2.29474e-70
1.25581e-72
1.35006e-74
6.14135e-77
7.42541e-80
4.93477e-84
6.96414e-91
2.79784e-99
1.90374e-106
0.00254962
2.34701e-112
0.119691
0.108887
0.0700394
0.0151753
-0.0244469
-0.0434976
-0.048278
-0.0412269
-0.0316378
-0.0232894
-0.0150421
-0.00944518
-0.00577919
-0.00336128
-0.0019807
-0.0011139
-0.000606595
-0.000336748
-0.000176291
-9.31084e-05
-4.74161e-05
-2.351e-05
-1.18807e-05
-5.76092e-06
-2.77169e-06
-1.34895e-06
-6.26008e-07
-2.9006e-07
-1.34074e-07
-6.05013e-08
-2.7812e-08
-1.25004e-08
-5.47006e-09
-2.44424e-09
-1.05179e-09
-4.58495e-10
-1.94594e-10
-8.11138e-11
-3.44996e-11
-1.40396e-11
-5.71534e-12
-2.32619e-12
-9.28524e-13
-3.71271e-13
-1.48518e-13
-5.71495e-14
-2.25621e-14
-8.58238e-15
-3.22458e-15
-1.23124e-15
-4.55663e-16
-1.70277e-16
-6.18199e-17
-2.20624e-17
-7.97798e-18
-2.76993e-18
-9.59697e-19
-3.30603e-19
-1.11557e-19
-3.74262e-20
-1.25143e-20
-3.99587e-21
-1.2986e-21
-4.05826e-22
-1.26661e-22
-3.81999e-23
-1.12167e-23
-3.27833e-24
-9.20325e-25
-2.50318e-25
-6.64397e-26
-1.6528e-26
-3.88936e-27
-8.45357e-28
-1.63641e-28
-2.73214e-29
-3.26634e-30
-1.48259e-31
9.63748e-33
-3.16144e-05
-0.00856436
-0.00257949
0.0434566
0.102999
0.143514
0.163036
0.166384
0.15886
0.148187
-0.040451
-0.00665578
-0.00703349
-0.00711359
-0.00699691
-0.00702809
-0.00708949
-0.00704434
-0.00711829
-0.00719144
1.41695e-40
-0.00335056
-2.66817e-48
-1.76465e-44
-1.43371e-42
5.97501e-41
9.35616e-40
-4.8697e-37
-2.10154e-35
-1.42428e-34
-7.74134e-46
0
0
0
0
0
0
0
0
0
0
0
0
0
0
0
0
0
1.93671e-41
9.84205e-40
5.11888e-39
2.39234e-37
1.82199e-37
3.293e-36
2.0733e-36
1.02892e-36
7.41095e-37
3.29286e-37
2.51824e-37
9.28075e-37
1.60701e-36
3.02329e-35
2.81833e-35
1.53767e-35
1.41775e-35
2.67322e-35
1.82921e-35
4.60994e-35
3.14484e-35
7.92049e-35
3.66715e-35
2.71622e-35
2.3672e-35
1.75143e-35
1.05025e-35
1.68449e-35
4.83497e-35
1.01471e-34
5.36753e-35
3.1145e-35
2.1937e-35
1.93798e-35
1.05935e-35
1.14982e-35
6.21718e-36
7.6467e-36
3.48965e-36
1.89215e-36
1.23309e-36
6.05903e-37
2.58841e-37
1.81438e-37
7.30122e-38
3.02256e-38
1.43513e-38
5.63688e-39
3.09802e-39
1.22689e-39
4.66858e-40
2.27308e-40
8.1981e-41
3.35442e-41
1.11387e-41
3.40863e-42
8.73922e-43
3.19082e-43
1.02864e-43
-3.51541e-44
-2.90482e-44
-1.24916e-44
-8.05137e-45
-3.76141e-45
-2.89344e-45
-1.40428e-45
-5.02671e-46
-2.47107e-46
-9.73693e-47
-3.91002e-47
-1.48225e-47
-4.44114e-48
-1.67115e-48
-7.4319e-49
-3.00573e-49
-7.67235e-50
-1.71979e-50
-3.2979e-51
-7.18933e-52
-2.01192e-52
-1.59783e-54
-1.59533e-53
1.19987e-114
0
7.01194e-38
1.84742e-39
-8.30672e-42
-1.07672e-42
-8.25464e-45
1.96676e-47
1.12811e-48
5.9992e-51
-6.84701e-54
-6.74502e-56
-8.45758e-59
3.06411e-60
3.98308e-62
2.64667e-64
4.97183e-67
5.2214e-70
2.72793e-72
3.05706e-74
1.40528e-76
1.77383e-79
1.1899e-83
1.5987e-90
6.77748e-99
4.90562e-106
8.04765e-112
-0.0637718
-0.0821809
-0.106192
-0.116741
-0.110265
-0.0936292
-0.0718196
-0.0510527
-0.0350564
-0.0221806
-0.0136617
-0.00820761
-0.00472994
-0.00272839
-0.001523
-0.000824921
-0.000450075
-0.000234462
-0.000123204
-6.25868e-05
-3.09696e-05
-1.55396e-05
-7.53641e-06
-3.6108e-06
-1.74769e-06
-8.10438e-07
-3.75325e-07
-1.73145e-07
-7.81207e-08
-3.57508e-08
-1.60506e-08
-7.01656e-09
-3.1232e-09
-1.34333e-09
-5.84749e-10
-2.48083e-10
-1.03357e-10
-4.38456e-11
-1.78547e-11
-7.26365e-12
-2.94986e-12
-1.17758e-12
-4.70017e-13
-1.87821e-13
-7.22772e-14
-2.84801e-14
-1.08329e-14
-4.06782e-15
-1.55104e-15
-5.73725e-16
-2.14244e-16
-7.77535e-17
-2.77352e-17
-1.00198e-17
-3.47817e-18
-1.20435e-18
-4.1465e-19
-1.39866e-19
-4.68967e-20
-1.5673e-20
-5.00272e-21
-1.62495e-21
-5.07636e-22
-1.58385e-22
-4.77552e-23
-1.40208e-23
-4.09789e-24
-1.15041e-24
-3.12898e-25
-8.30496e-26
-2.06601e-26
-4.8617e-27
-1.0567e-27
-2.04551e-28
-3.41517e-29
-4.08292e-30
-1.85323e-31
1.20469e-32
-0.0116436
0.00366138
0.0293601
0.0379806
0.0286547
0.00942277
-0.0147811
-0.0379768
-0.00177517
-0.000993286
-0.000939168
-0.00101414
-0.000981624
-0.00111936
-0.00111523
-0.00106053
-0.000976571
-0.00206418
-0.00150701
3.44005e-42
1.07254e-39
-1.02563e-37
-6.57588e-36
-1.56631e-34
0
0
0
0
0
0
0
0
0
0
0
0
0
0
0
0
2.42088e-41
1.15215e-39
-1.45185e-38
2.90847e-37
5.21683e-39
3.5196e-36
2.34964e-36
1.0865e-36
8.38721e-37
3.61022e-37
-1.89805e-37
6.72666e-37
5.14799e-37
2.24249e-35
2.74767e-35
7.3777e-36
6.46153e-36
1.87163e-35
-4.45077e-36
3.50944e-35
1.74375e-35
7.80655e-35
2.89056e-35
1.64253e-35
2.06821e-35
1.21918e-35
1.63251e-36
7.70308e-36
1.79344e-35
7.37619e-35
4.05837e-35
1.04815e-35
8.2164e-36
1.11581e-35
5.03994e-36
1.06116e-35
3.25249e-36
7.40242e-36
2.78792e-36
1.50816e-36
1.17831e-36
6.14978e-37
2.3492e-37
1.91764e-37
7.71144e-38
3.14681e-38
1.53919e-38
5.64071e-39
3.4268e-39
1.36687e-39
5.11835e-40
2.61315e-40
9.46437e-41
3.9133e-41
1.34665e-41
4.11742e-42
1.08285e-42
4.19871e-43
1.44707e-43
-3.95904e-44
-3.18059e-44
-1.24695e-44
-9.08711e-45
-4.28874e-45
-3.50186e-45
-1.70968e-45
-6.08924e-46
-3.02573e-46
-1.19029e-46
-4.80496e-47
-1.82746e-47
-5.45988e-48
-2.06898e-48
-9.23653e-49
-3.73706e-49
-9.53858e-50
-2.14056e-50
-4.11369e-51
-8.9786e-52
-2.51362e-52
-1.99204e-54
-1.99415e-53
-5.2511e-42
-1.06981e-43
-3.99413e-46
9.87915e-48
7.44218e-50
2.33344e-52
-8.39263e-55
-4.4427e-57
1.60506e-59
3.88864e-61
3.45573e-63
1.36399e-65
1.49854e-68
2.65595e-71
2.99975e-73
2.22207e-75
5.94177e-78
2.26529e-81
2.16394e-86
5.9737e-95
8.90997e-103
1.5964e-109
-0.0621764
-0.0720477
-0.0948766
-0.114487
-0.116578
-0.102558
-0.0836316
-0.0617237
-0.042635
-0.027843
-0.0177249
-0.0107091
-0.00632088
-0.00360064
-0.00205861
-0.00113665
-0.000611098
-0.000323076
-0.000170109
-8.87452e-05
-4.47871e-05
-2.19983e-05
-1.09627e-05
-5.28968e-06
-2.51857e-06
-1.18292e-06
-5.59257e-07
-2.57229e-07
-1.18079e-07
-5.30252e-08
-2.41546e-08
-1.07724e-08
-4.69263e-09
-2.03707e-09
-8.86541e-10
-3.84404e-10
-1.62453e-10
-6.74116e-11
-2.82477e-11
-1.15358e-11
-4.66913e-12
-1.8921e-12
-7.42229e-13
-2.98025e-13
-1.17267e-13
-4.55178e-14
-1.76347e-14
-6.73223e-15
-2.51913e-15
-9.3871e-16
-3.50857e-16
-1.30277e-16
-4.70543e-17
-1.67159e-17
-5.96255e-18
-2.07261e-18
-7.12025e-19
-2.44297e-19
-8.10459e-20
-2.72488e-20
-8.92352e-21
-2.86279e-21
-9.06656e-22
-2.84021e-22
-8.77711e-23
-2.62698e-23
-7.6187e-24
-2.19898e-24
-6.08081e-25
-1.62524e-25
-4.1512e-26
-1.02153e-26
-2.30542e-27
-4.79024e-28
-8.61261e-29
-1.26483e-29
-1.07998e-30
-3.50929e-34
-0.0108989
-0.00533417
0.0166193
0.0368895
0.0360976
0.0213131
-0.00177566
-0.0252888
-0.045693
-0.00116295
-0.000934633
-0.000901987
-0.00112461
-0.00110421
-0.00109123
-0.00113615
-0.000701456
-5.70145e-48
-4.28461e-44
-2.83703e-42
1.48157e-40
1.19121e-39
-1.07208e-36
-4.22897e-35
-1.88945e-34
0
0
0
0
0
0
0
0
0
0
0
0
0
0
0
0
-8.2365e-41
-3.78238e-39
4.53293e-37
2.10276e-37
5.38019e-36
3.60145e-36
1.68119e-36
1.27597e-36
5.70206e-37
3.37386e-38
1.3014e-36
1.10593e-36
3.1531e-35
3.75443e-35
8.41606e-36
1.35719e-36
-2.46633e-36
7.98137e-36
6.61522e-35
2.22511e-35
9.11981e-35
4.98993e-35
2.31563e-35
3.18598e-35
1.83743e-35
3.66768e-36
1.98266e-35
2.12879e-35
1.05228e-34
5.09255e-35
1.03933e-35
2.21827e-36
1.45809e-36
7.07856e-36
1.64809e-35
3.72428e-36
8.81131e-36
4.96156e-36
2.12417e-36
1.85065e-36
9.06224e-37
3.70074e-37
2.91141e-37
1.21151e-37
4.63278e-38
2.04528e-38
9.25484e-39
5.5401e-39
2.18489e-39
8.31207e-40
4.19583e-40
1.57145e-40
6.66467e-41
2.15015e-41
7.20381e-42
1.86462e-42
5.42947e-43
2.77809e-43
-2.3709e-44
-4.26954e-44
-1.81611e-44
-7.43758e-45
-6.80738e-45
-5.75966e-45
-2.26559e-45
-1.07556e-45
-4.64473e-46
-2.11407e-46
-8.16783e-47
-3.04182e-47
-1.01522e-47
-3.58988e-48
-1.3961e-48
-6.81558e-49
-1.86347e-49
-4.55077e-50
-9.2426e-51
-1.8913e-51
-4.54516e-52
-9.27232e-53
3.38413e-53
-5.8152e-35
1.51338e-38
8.11516e-38
-8.5766e-36
-9.3759e-37
0.000432998
-0.0683276
-0.0030091
-0.00123737
-3.95401e-49
-6.36424e-43
0
0
0
0
0
0
0
0
0
0
0
0
0
0
0
0
0
0
0
0
0
0
0
0
0
0
0
0
0
0
0
0
0
0
0
0
0
0
0
0
0
0
0
0
0
0
0
0
0
0
0
0
0
0
0
0
0
0
0
0
0
0
0
0
0
0
0
0
0
0
0
0
0
0
0
0
0
0
0
0
0
0
0
0
0
0
0
0
0
0
0
0
0
0
0
0
0
0
0
0
0
0
0
0
0
0
0
0
0
0
0
0
0
0
0
0
0
0
0
0
0
0
0
0
0
0
0
0
0
0
0
0
0
0
0
0
0
0
0
0
0
0
0
0
0
0
0
0
0
0
0
0
0
0
0
0
0
0
0
0
0
0
0
0
0
0
0
0
0
0
0
0
0
0
0
0
0
0
0
0
0
0
0
0
0
0
0
0
0
0
0
0
0
0
0
0
0
-0.000403129
0
0
0
0
0
0
0
0
0
0
0
0
0
0
0
0
0
0
0
0
0
0
0
0
0
0
0
0
0
0
0
0
0
0
0
0
0
0
0
0
0
0
0
0
0
0
0
0
0
0
0
0
0
0
0
0
0
0
0
0
0
0
0
0
0
0
0
0
0
0
0
0
0
0
0
0
0
0
0
0
0
0
0
0
0
0
0
0
0
0
0
0
0
0
0
0
0
0
0
0
0
0
0
0
0
0
0
0
0
0
0
0
0
0
0
0
0
0
0
0
0
0
0
0
0
0
0
0
0
0
0
0
0
0
0
0
0
0
0
0
0
0
0
0
0
0
0
0
0
0
0
0
0
0
0
0
0
0
0
0
0
0
2.68782e-140
3.41239e-140
4.65387e-140
5.78151e-140
2.99104e-140
3.73801e-140
4.738e-139
5.36259e-139
1.83837e-138
2.32484e-138
1.19917e-138
1.44518e-138
9.1263e-137
1.15035e-136
6.37283e-137
7.83494e-137
4.05813e-137
5.04191e-137
1.32271e-136
-6.95811e-137
8.60978e-135
1.0357e-134
1.96241e-134
2.3558e-134
3.95458e-134
4.65542e-134
1.06552e-132
1.24227e-132
6.67868e-133
7.96941e-133
4.21642e-133
4.89349e-133
3.0011e-132
3.61752e-132
2.07171e-132
2.49334e-132
1.43115e-132
1.74236e-132
5.91221e-132
7.0767e-132
6.53871e-132
7.73992e-132
6.86952e-132
-4.04054e-132
5.72376e-132
-1.12461e-132
6.89772e-131
8.09083e-131
1.4539e-130
-2.79155e-130
1.79716e-128
2.16821e-128
1.16991e-128
1.36315e-128
7.57348e-129
8.70076e-129
5.04912e-129
5.57799e-129
8.63961e-128
1.02395e-127
6.54745e-128
7.78278e-128
4.1772e-128
5.01414e-128
1.44357e-127
1.71909e-127
1.97532e-127
2.35853e-127
1.2762e-127
1.49723e-127
5.15629e-127
4.44255e-127
3.10125e-126
3.67335e-126
2.03947e-126
2.26507e-126
6.11837e-126
7.44965e-126
3.91114e-126
4.70065e-126
2.47957e-126
2.9605e-126
1.59544e-126
1.66521e-126
2.26353e-126
2.57419e-126
4.35593e-126
5.20076e-126
2.87968e-126
3.34349e-126
4.15928e-125
4.92317e-125
4.58725e-125
5.45135e-125
2.91047e-125
3.48979e-125
2.70793e-125
2.81638e-125
5.19818e-125
6.2166e-125
3.54996e-125
3.43403e-125
1.11608e-124
1.35446e-124
6.98569e-125
8.26425e-125
4.18359e-125
5.00727e-125
3.17456e-125
3.8208e-125
2.17647e-125
2.56546e-125
1.66616e-125
1.70875e-125
5.39694e-124
6.39925e-124
3.58245e-124
3.80486e-124
5.3778e-124
6.42213e-124
3.52582e-124
4.03722e-124
3.21565e-123
3.76026e-123
2.23979e-123
2.62952e-123
1.48721e-123
1.78309e-123
2.24551e-123
2.70289e-123
2.19327e-123
2.60616e-123
2.06849e-123
-1.20359e-123
1.62361e-122
1.83403e-122
2.48261e-122
3.01785e-122
1.57152e-122
1.90799e-122
1.54618e-122
1.89322e-122
9.9427e-123
1.17658e-122
1.08638e-122
1.32657e-122
6.71982e-123
8.21994e-123
2.35014e-122
2.81734e-122
1.66411e-122
2.00033e-122
1.05633e-122
1.28962e-122
1.75064e-122
2.12473e-122
1.67082e-122
2.01321e-122
1.04724e-122
1.27788e-122
9.46202e-123
1.05599e-122
1.28608e-122
1.57174e-122
1.10222e-122
1.24542e-122
6.37691e-123
7.43255e-123
4.08721e-123
4.39882e-123
8.81732e-123
1.06326e-122
5.36199e-123
6.59092e-123
4.82943e-123
5.81487e-123
4.94815e-123
6.04814e-123
3.14916e-123
3.89665e-123
4.92572e-123
6.08059e-123
3.91349e-123
4.75256e-123
2.3117e-123
2.84571e-123
1.52065e-123
1.82183e-123
1.45295e-123
1.82068e-123
9.19435e-124
1.11879e-123
1.39378e-123
1.71635e-123
1.07215e-123
1.2993e-123
6.10689e-124
7.51472e-124
4.13358e-124
5.18739e-124
2.56421e-124
3.15779e-124
2.103e-124
2.17132e-124
1.99515e-123
2.46276e-123
1.25497e-123
1.53356e-123
7.47897e-124
9.16168e-124
4.29001e-124
5.30479e-124
8.8484e-124
1.09259e-123
6.40901e-124
7.91456e-124
3.99148e-124
4.9904e-124
3.06733e-124
3.85749e-124
1.56635e-124
1.91745e-124
8.97693e-125
1.11647e-124
4.40619e-124
-9.18709e-125
2.30893e-118
1.26677e-118
4.55257e-115
5.59583e-115
2.91404e-115
1.50453e-114
3.65294e-115
1.83103e-38
-3.38e-34
-5.62262e-34
1.72651e-34
6.63472e-34
-3.91521e-34
-1.13636e-36
-1.041e-35
-2.91201e-36
-1.00642e-41
4.00931e-05
-1.30406e-42
-1.00086e-44
2.39021e-47
1.36466e-48
7.25508e-51
-8.31719e-54
-8.15003e-56
-1.01798e-58
3.71911e-60
4.81546e-62
3.20199e-64
5.98872e-67
6.30047e-70
3.31475e-72
3.70884e-74
1.69862e-76
2.13912e-79
1.417e-83
1.90079e-90
8.04895e-99
5.80572e-106
9.6779e-112
4.98626e-114
-0.016802
-0.00225121
-0.0196793
-0.018779
-0.0168466
-0.0120787
-0.00587295
-0.00380265
-0.00204766
-0.00126609
-0.000399707
-0.000283782
-0.000208665
-4.59183e-05
2.00795e-05
-1.0229e-05
-4.9557e-06
-4.22989e-06
-3.09528e-06
-8.81534e-07
-1.72077e-06
-1.09026e-06
-5.60128e-07
-3.93177e-07
-2.18302e-07
-1.40268e-07
-6.15181e-08
-3.30593e-08
-1.88899e-08
-7.86477e-09
-3.14716e-09
-1.72666e-09
-7.68064e-10
-4.12882e-10
-1.85831e-10
-7.48151e-11
-3.70259e-11
-1.71211e-11
-8.20831e-12
-3.44336e-12
-1.47526e-12
-6.70036e-13
-2.81103e-13
-1.06684e-13
-4.60347e-14
-1.81923e-14
-7.34609e-15
-3.05082e-15
-1.13923e-15
-4.73288e-16
-1.82814e-16
-6.5182e-17
-2.60869e-17
-9.85365e-18
-3.81311e-18
-1.38469e-18
-4.87017e-19
-1.81333e-19
-6.42424e-20
-2.1259e-20
-7.53219e-21
-2.49344e-21
-8.15214e-22
-2.73293e-22
-8.20106e-23
-2.65274e-23
-8.40345e-24
-2.49685e-24
-7.5136e-25
-2.15062e-25
-6.19281e-26
-1.65831e-26
-4.19915e-27
-1.03614e-27
-2.30252e-28
-4.48953e-29
-7.74215e-30
-9.19449e-31
-4.43098e-32
0.00211828
2.63078e-33
4.17402e-42
0.00239298
0.00424993
0.00281393
-0.00362433
-0.00959799
-0.0135803
-0.0161725
-0.0171841
0.00267848
0.000208036
0.00235336
-0.0144756
0.00244043
0.000194792
0.000196551
-4.86569e-49
0.00235785
0.00229331
0.00227369
0.00226045
0.00226758
0.00233229
0.00269218
0.00151171
0.000350563
6.39096e-05
1.71463e-40
-1.20631e-41
-0.0145296
0.00106271
8.48219e-38
3.95986e-38
-0.00127412
0.00149605
0.00158469
0.00350002
0.00211445
0.00456307
0.00198438
0.00423873
0.00133443
0.00259898
-1.48949e-05
0.000228666
-0.00161112
-0.00271487
-0.00279149
-0.00528027
-0.00376352
-0.00712874
-0.00426117
-0.0093515
-0.0047707
-0.0114801
-0.00456141
-0.0125934
-0.00438118
-0.0138092
-0.00339106
-0.0141655
-0.00298745
-0.0146774
-0.0022061
-0.0155123
-0.000377567
-0.0135888
-0.00162331
-0.0155317
-0.00101217
-0.0124683
0.00105271
-0.0117777
0.00186019
-0.013574
0.00118544
-0.0157207
0.00201094
-0.0166163
0.000723672
-0.0162019
0.00194223
-0.0141124
0.00336268
-0.0124206
0.00554842
-0.00992697
0.00632019
-0.00626461
0.00736891
-0.00348217
0.00870517
-0.00258116
0.00980408
-0.00150735
0.00835188
-0.00171235
0.00795585
-0.00111226
0.00588026
-8.7626e-05
0.00510161
-0.000353056
0.00490862
0.000244422
0.00349606
0.000541504
0.0031518
0.000417031
0.0027664
0.000562904
0.00205555
0.00029741
0.00184606
5.6947e-05
0.00124474
9.97509e-05
0.000790535
0.000117569
0.000653737
0.000131078
0.000519086
6.75057e-05
0.000426456
6.75024e-05
0.000281842
7.08683e-05
0.000222327
3.14093e-05
0.000180669
3.42191e-05
0.000112517
3.07792e-05
8.92496e-05
1.33183e-05
7.05588e-05
9.80909e-06
4.20995e-05
9.82588e-06
3.06601e-05
4.32193e-06
2.41665e-05
4.04264e-06
1.46919e-05
3.55373e-06
1.1282e-05
3.11464e-06
8.46436e-06
1.90528e-06
6.4541e-06
1.54062e-06
4.2144e-06
1.33401e-06
3.1745e-06
5.05973e-07
2.3959e-06
4.65413e-07
1.28757e-06
3.82489e-07
9.65156e-07
1.34935e-07
7.2172e-07
9.38159e-08
3.81546e-07
8.94383e-08
2.65413e-07
1.54981e-08
2.0105e-07
2.19313e-08
9.72942e-08
2.14366e-08
7.37555e-08
8.36218e-09
5.53663e-08
9.29373e-09
3.13636e-08
-1.08071e-09
2.46623e-08
-6.28161e-09
1.00166e-08
-3.6609e-09
2.06778e-09
-1.94488e-09
1.95913e-09
-8.65347e-10
1.69805e-09
-1.33478e-09
1.45793e-09
-8.98224e-10
2.77074e-10
-4.63331e-10
1.95706e-10
-6.20918e-10
2.2761e-10
-3.63428e-10
-1.24403e-10
-2.05349e-10
-4.47355e-11
-1.7298e-10
-4.52327e-12
-9.72269e-11
-3.71937e-11
-1.06378e-10
-1.11133e-11
-9.98972e-11
-4.38944e-11
-6.35841e-11
-5.4366e-11
-3.95011e-11
-3.3202e-11
-2.40184e-11
-2.00209e-11
-1.7322e-11
-1.19423e-11
-1.07601e-11
-9.33477e-12
-6.49869e-12
-5.65257e-12
-5.6732e-12
-3.33636e-12
-3.53721e-12
-3.43659e-12
-2.15179e-12
-2.08477e-12
-1.75789e-12
-1.27898e-12
-1.14304e-12
-1.11184e-12
-6.949e-13
-7.21946e-13
-5.13696e-13
-4.37555e-13
-3.21458e-13
-3.42133e-13
-1.97291e-13
-2.10882e-13
-1.20057e-13
-1.27695e-13
-8.19121e-14
-7.81221e-14
-5.06023e-14
-5.46901e-14
-3.07429e-14
-3.35547e-14
-2.37833e-14
-2.039e-14
-1.47463e-14
-1.65993e-14
-8.87892e-15
-1.00425e-14
-6.52424e-15
-6.16323e-15
-4.08974e-15
-4.56076e-15
-2.46098e-15
-2.84795e-15
-1.75246e-15
-1.71545e-15
-1.08275e-15
-1.26753e-15
-6.47122e-16
-7.61981e-16
-4.19793e-16
-4.56849e-16
-2.52728e-16
-2.98272e-16
-1.77017e-16
-1.80777e-16
-1.22523e-16
-1.28239e-16
-7.54032e-17
-9.06473e-17
-4.50785e-17
-5.45314e-17
-2.67647e-17
-3.22143e-17
-1.75793e-17
-1.94203e-17
-1.07361e-17
-1.28583e-17
-6.34446e-18
-7.73221e-18
-4.15547e-18
-4.57099e-18
-2.51366e-18
-3.06633e-18
-1.46825e-18
-1.80117e-18
-9.82707e-19
-1.05538e-18
-5.85172e-19
-7.18546e-19
-3.44188e-19
-4.24372e-19
-2.1357e-19
-2.46108e-19
-1.27252e-19
-1.56867e-19
-7.39131e-20
-9.16425e-20
-4.26534e-20
-5.25451e-20
-2.53605e-20
-3.046e-20
-1.47105e-20
-1.81717e-20
-8.48295e-21
-1.0539e-20
-5.28687e-21
-6.04152e-21
-3.08895e-21
-3.82985e-21
-1.74369e-21
-2.17276e-21
-1.06816e-21
-1.24524e-21
-6.13342e-22
-7.52564e-22
-3.44533e-22
-4.30066e-22
-2.04111e-22
-2.41378e-22
-1.16048e-22
-1.44578e-22
-6.43326e-23
-8.05369e-23
-3.54682e-23
-4.40991e-23
-1.98829e-23
-2.43884e-23
-1.09831e-23
-1.36664e-23
-6.05532e-24
-7.55558e-24
-3.26111e-24
-4.08653e-24
-1.85207e-24
-2.21506e-24
-1.00722e-24
-1.24893e-24
-5.78495e-25
-6.83408e-25
-3.16898e-25
-3.91257e-25
-1.67776e-25
-2.0989e-25
-9.20552e-26
-1.09863e-25
-4.92027e-26
-6.13044e-26
-2.51021e-26
-3.14121e-26
-1.29746e-26
-1.59176e-26
-6.58933e-27
-8.18827e-27
-3.41937e-27
-4.12517e-27
-1.7688e-27
-2.13185e-27
-8.81127e-28
-1.09946e-27
-4.1927e-28
-5.24705e-28
-1.94053e-28
-2.41469e-28
-8.83522e-29
-1.09072e-28
-3.94032e-29
-4.91002e-29
-1.6692e-29
-2.08615e-29
-6.85615e-30
-8.38965e-30
-2.65254e-30
-3.30179e-30
-8.624e-31
-1.07832e-30
-2.2294e-31
-2.82408e-31
-3.75088e-32
-4.68154e-32
2.03095e-33
2.5487e-33
3.0369e-33
3.5729e-33
1.26338e-33
0
-7.70491e-43
-5.18234e-44
-1.27463e-43
0
-3.44418e-42
-6.64068e-42
1.29897e-39
-1.24344e-37
-7.97724e-36
-1.89658e-34
0
0
0
0
-9.43473e-46
-2.40734e-45
0
-7.06626e-34
-6.4779e-34
0
0
0
0
0
0
0
0
0
0
0
0
0
0
0
0
3.98377e-39
1.68478e-37
3.06264e-35
1.2743e-35
5.74956e-35
1.647e-34
7.13918e-35
5.81853e-35
2.93625e-35
1.78716e-35