/*--------------------------------*- C++ -*----------------------------------*\
  =========                 |
  \\      /  F ield         | OpenFOAM: The Open Source CFD Toolbox
   \\    /   O peration     | Website:  https://openfoam.org
    \\  /    A nd           | Version:  7
     \\/     M anipulation  |
\*---------------------------------------------------------------------------*/
FoamFile
{
    version     2.0;
    format      ascii;
    class       volScalarField;
    location    "0.85";
    object      T;
}
// * * * * * * * * * * * * * * * * * * * * * * * * * * * * * * * * * * * * * //

dimensions      [0 0 0 1 0 0 0];

internalField   nonuniform List<scalar> 
10000
(
0.5
0.0669146
-0.0353169
-0.0277115
-0.00789976
0.00112931
0.00220711
0.000963794
3.88563e-05
-0.000206219
-0.000130475
-2.60559e-05
1.76156e-05
1.74837e-05
6.08561e-06
-9.06071e-07
-2.20759e-06
-1.13469e-06
-1.06163e-07
2.47859e-07
1.87024e-07
4.9395e-08
-2.13888e-08
-2.77866e-08
-1.17496e-08
4.15034e-10
3.66278e-09
2.25287e-09
3.96249e-10
-4.00522e-10
-3.77204e-10
-1.28468e-10
2.72483e-11
5.58372e-11
2.85372e-11
2.14233e-12
-7.093e-12
-5.30845e-12
-1.37604e-12
6.83554e-13
8.64618e-13
3.65812e-13
-1.85771e-14
-1.22723e-13
-7.56685e-14
-1.29189e-14
1.45431e-14
1.37905e-14
4.92611e-15
-8.3489e-16
-2.11114e-15
-1.34794e-15
-5.46959e-16
-2.65789e-16
-2.62451e-16
-2.29688e-16
-7.66337e-17
1.239e-16
2.70365e-16
3.12212e-16
2.5902e-16
1.53914e-16
4.38002e-17
-3.88468e-17
-8.12943e-17
-8.71173e-17
-6.89477e-17
-4.12391e-17
-1.52877e-17
2.81097e-18
1.17797e-17
1.34545e-17
1.08588e-17
6.77336e-18
3.03951e-18
4.80157e-19
-8.30687e-19
-1.20641e-18
-1.05451e-18
-7.08569e-19
-3.72027e-19
-1.31414e-19
2.95652e-21
5.65339e-20
6.25499e-20
4.79081e-20
2.9197e-20
1.40998e-20
4.57671e-21
-1.98941e-22
-1.88247e-21
-1.96517e-21
-1.44772e-21
-8.62436e-22
-4.18469e-22
-1.49136e-22
-1.60823e-23
3.29845e-23
3.98055e-23
2.95346e-23
0.933085
0.5
0.14482
-0.0139075
-0.0411718
-0.0230289
-0.00507433
0.00215701
0.00250723
0.00101071
-9.38734e-08
-0.000255324
-0.000158213
-3.18213e-05
2.20241e-05
2.24005e-05
8.17946e-06
-9.48178e-07
-2.86443e-06
-1.56602e-06
-2.00131e-07
3.13491e-07
2.58847e-07
7.77035e-08
-2.39625e-08
-3.79444e-08
-1.77304e-08
-5.20299e-10
4.83208e-09
3.30976e-09
7.47241e-10
-4.84999e-10
-5.38962e-10
-2.10525e-10
2.14979e-11
7.6803e-11
4.42269e-11
6.23628e-12
-9.1245e-12
-7.90478e-12
-2.489e-12
7.31474e-13
1.23554e-12
5.98521e-13
2.3191e-14
-1.66413e-13
-1.18085e-13
-2.81178e-14
1.75579e-14
2.11152e-14
9.92e-15
1.41214e-15
-1.14527e-15
-8.01625e-16
-4.11039e-16
-7.56664e-16
-1.35691e-15
-1.61801e-15
-1.35344e-15
-7.38719e-16
-7.02791e-17
4.22777e-16
6.47688e-16
6.30105e-16
4.60447e-16
2.40705e-16
4.88843e-17
-7.51486e-17
-1.26566e-16
-1.22914e-16
-8.9653e-17
-4.92592e-17
-1.59262e-17
4.8227e-18
1.36722e-17
1.43066e-17
1.08406e-17
6.39859e-18
2.71936e-18
3.85997e-19
-7.18043e-19
-9.89938e-19
-8.35417e-19
-5.46508e-19
-2.82601e-19
-1.01799e-19
-3.96989e-21
3.44144e-20
3.93555e-20
3.03104e-20
1.86036e-20
9.21019e-21
3.29846e-21
2.98152e-22
-8.27099e-22
-9.80378e-22
-7.55709e-22
-4.66066e-22
-2.41493e-22
-6.70164e-23
1.03532
0.85518
0.5
0.182448
0.00830364
-0.0419281
-0.032441
-0.0120093
3.84408e-05
0.00307766
0.00201936
0.000522644
-0.000189734
-0.000261936
-0.000118925
-6.07707e-06
2.86043e-05
2.02421e-05
5.19525e-06
-2.29056e-06
-2.95623e-06
-1.27806e-06
8.46554e-09
3.71768e-07
2.40892e-07
5.03709e-08
-3.68802e-08
-3.89006e-08
-1.47958e-08
1.67178e-09
5.45504e-09
3.1046e-09
4.35545e-10
-6.33136e-10
-5.48229e-10
-1.74177e-10
4.8361e-11
8.41877e-11
4.13499e-11
2.1601e-12
-1.10091e-11
-7.96957e-12
-1.97696e-12
1.09452e-12
1.32781e-12
5.52406e-13
-3.63255e-14
-1.94506e-13
-1.21485e-13
-2.41775e-14
1.97958e-14
2.12243e-14
1.04318e-14
3.8582e-15
2.91379e-15
3.53186e-15
2.88237e-15
7.91122e-16
-1.55778e-15
-3.06914e-15
-3.35328e-15
-2.64634e-15
-1.46743e-15
-3.13685e-16
5.01897e-16
8.80742e-16
8.87433e-16
6.67692e-16
3.73329e-16
1.14773e-16
-5.45893e-17
-1.29956e-16
-1.35172e-16
-1.02687e-16
-5.99579e-17
-2.37633e-17
-5.48729e-19
1.02357e-17
1.2354e-17
9.98693e-18
6.28836e-18
3.03014e-18
8.56973e-19
-2.63186e-19
-6.41512e-19
-6.15839e-19
-4.37111e-19
-2.48472e-19
-1.08731e-19
-2.66432e-20
1.08796e-20
2.14387e-20
1.92264e-20
1.30606e-20
7.24225e-21
3.19745e-21
9.16769e-22
-1.11886e-22
-4.18655e-22
-4.08271e-22
1.02771
1.01391
0.817552
0.5
0.206389
0.0268058
-0.0388677
-0.0384381
-0.0184166
-0.00302402
0.00284105
0.00282245
0.00118552
4.2633e-05
-0.000296282
-0.000211922
-6.02234e-05
1.88442e-05
2.95095e-05
1.43558e-05
1.17969e-06
-3.31264e-06
-2.541e-06
-7.3481e-07
2.46588e-07
3.7721e-07
1.7883e-07
8.57306e-09
-4.67553e-08
-3.3615e-08
-8.56666e-09
4.24374e-09
5.36576e-09
2.31171e-09
-5.87231e-11
-7.29434e-10
-4.68781e-10
-9.40043e-11
7.80721e-11
8.04026e-11
3.01652e-11
-4.11827e-12
-1.18723e-11
-6.6899e-12
-8.72542e-13
1.45064e-12
1.2395e-12
3.90022e-13
-1.17954e-13
-2.03147e-13
-1.08137e-13
-1.92996e-14
1.28229e-14
1.08162e-14
4.11714e-15
4.14462e-15
8.43828e-15
1.14341e-14
1.0483e-14
6.33981e-15
1.25838e-15
-2.77561e-15
-4.81645e-15
-4.91735e-15
-3.72351e-15
-2.03403e-15
-4.94461e-16
5.39916e-16
9.97631e-16
9.99582e-16
7.4451e-16
4.1714e-16
1.39455e-16
-3.7238e-17
-1.14701e-16
-1.21896e-16
-9.30917e-17
-5.51105e-17
-2.32755e-17
-2.96141e-18
6.64893e-18
8.94876e-18
7.48915e-18
4.85601e-18
2.46938e-18
8.46026e-19
-2.08526e-20
-3.48938e-19
-3.77082e-19
-2.83177e-19
-1.69879e-19
-8.132e-20
-2.67897e-20
5.55237e-23
9.44293e-21
1.00304e-20
7.39695e-21
4.40561e-21
2.19115e-21
5.22578e-22
1.0079
1.04117
0.991696
0.793611
0.5
0.223365
0.042154
-0.0343031
-0.0421139
-0.0239644
-0.00647534
0.00197761
0.00332499
0.00186777
0.000400612
-0.000245072
-0.000285991
-0.000129611
-8.12739e-06
3.15022e-05
2.39228e-05
7.25577e-06
-1.97863e-06
-3.44893e-06
-1.76137e-06
-1.8454e-07
3.9124e-07
3.18273e-07
9.93709e-08
-2.70434e-08
-4.76358e-08
-2.40385e-08
-2.00424e-09
5.81838e-09
4.51192e-09
1.29237e-09
-4.84176e-10
-7.13816e-10
-3.342e-10
-9.51006e-12
9.45111e-11
6.64241e-11
1.60452e-11
-9.35424e-12
-1.11648e-11
-4.66411e-12
2.68012e-13
1.61407e-12
1.01928e-12
2.05956e-13
-1.66859e-13
-1.79102e-13
-8.29677e-14
-2.07379e-14
-9.07695e-15
-1.56368e-14
-1.54226e-14
-4.40389e-15
9.79928e-15
1.92869e-14
2.09818e-14
1.62754e-14
8.58675e-15
1.19064e-15
-3.89673e-15
-6.09448e-15
-5.88697e-15
-4.26736e-15
-2.24249e-15
-5.27062e-16
5.50819e-16
9.85647e-16
9.56753e-16
6.92427e-16
3.79523e-16
1.2765e-16
-2.56519e-17
-9.00039e-17
-9.52348e-17
-7.20503e-17
-4.25517e-17
-1.843e-17
-3.29289e-18
3.8564e-18
5.70824e-18
4.88589e-18
3.22114e-18
1.68948e-18
6.38549e-19
6.65387e-20
-1.63986e-19
-2.02568e-19
-1.59856e-19
-9.98171e-20
-5.06227e-20
-1.92445e-20
-3.02118e-21
3.35188e-21
4.53183e-21
3.5092e-21
0.998871
1.02303
1.04193
0.973194
0.776635
0.5
0.236308
0.0551561
-0.0291433
-0.0442026
-0.0286476
-0.0100134
0.000663016
0.00351519
0.00249279
0.000838178
-0.000110139
-0.000325109
-0.00020245
-4.98925e-05
2.37007e-05
3.12705e-05
1.49634e-05
1.26022e-06
-3.52123e-06
-2.80623e-06
-8.96015e-07
2.13495e-07
4.11962e-07
2.18731e-07
2.6977e-08
-4.67862e-08
-3.99564e-08
-1.32132e-08
2.98683e-09
5.99819e-09
3.17653e-09
3.49636e-10
-7.21183e-10
-5.94783e-10
-1.85005e-10
5.48497e-11
9.32949e-11
4.65234e-11
3.11588e-12
-1.20735e-11
-9.13744e-12
-2.50578e-12
1.10503e-12
1.54087e-12
7.44453e-13
7.48085e-14
-1.43916e-13
-1.06089e-13
-3.65317e-14
-2.03941e-14
-4.06829e-14
-5.79631e-14
-5.29878e-14
-2.95968e-14
-1.40163e-15
1.99386e-14
2.9393e-14
2.791e-14
1.96688e-14
9.40383e-15
6.90756e-16
-4.70131e-15
-6.64396e-15
-6.04366e-15
-4.15478e-15
-2.06078e-15
-4.23872e-16
5.26292e-16
8.63561e-16
8.00526e-16
5.58227e-16
2.96417e-16
9.7442e-17
-1.78606e-17
-6.3702e-17
-6.62419e-17
-4.93525e-17
-2.89048e-17
-1.26615e-17
-2.66847e-18
2.01503e-18
3.28252e-18
2.86103e-18
1.90849e-18
1.02289e-18
4.12152e-19
7.53865e-20
-6.63319e-20
-9.77893e-20
-8.12026e-20
-5.25199e-20
-2.7807e-20
-1.18353e-20
-1.05762e-21
0.997793
1.00507
1.03244
1.03887
0.957846
0.763692
0.5
0.246668
0.0663827
-0.0238073
-0.0451887
-0.0325522
-0.0134733
-0.000959178
0.00341734
0.00301639
0.00131432
9.733e-05
-0.000320961
-0.000268331
-0.000102053
5.40097e-06
3.42592e-05
2.29965e-05
6.2179e-06
-2.43292e-06
-3.56994e-06
-1.78399e-06
-1.83405e-07
4.05355e-07
3.37003e-07
1.12392e-07
-2.33436e-08
-4.9923e-08
-2.74106e-08
-3.82702e-09
5.6432e-09
5.03276e-09
1.74445e-09
-3.29809e-10
-7.55156e-10
-4.1639e-10
-5.49326e-11
8.9278e-11
7.76978e-11
2.5758e-11
-6.20177e-12
-1.21572e-11
-6.44739e-12
-7.16681e-13
1.47282e-12
1.25198e-12
4.71406e-13
3.14458e-14
-3.11078e-14
3.36986e-14
5.4803e-14
7.16793e-15
-6.11834e-14
-1.03736e-13
-1.04729e-13
-7.40868e-14
-3.15386e-14
5.78676e-15
2.86761e-14
3.5788e-14
3.09913e-14
2.01612e-14
8.63362e-15
-1.80784e-16
-5.04713e-15
-6.38117e-15
-5.42419e-15
-3.5092e-15
-1.62061e-15
-2.62711e-16
4.60142e-16
6.77502e-16
5.96261e-16
3.99457e-16
2.04779e-16
6.49754e-17
-1.21558e-17
-4.10837e-17
-4.17416e-17
-3.05666e-17
-1.77212e-17
-7.80802e-18
-1.82774e-18
9.50656e-19
1.72662e-18
1.53155e-18
1.03202e-18
5.62807e-19
2.37797e-19
5.66555e-20
-2.2195e-20
-4.294e-20
-3.79442e-20
-2.29772e-20
0.999036
0.997843
1.01201
1.03844
1.0343
0.944844
0.753332
0.5
0.255249
0.0762288
-0.0184971
-0.0453946
-0.0357829
-0.0167686
-0.00277966
0.00306919
0.00341666
0.00179625
0.000362307
-0.000271062
-0.000319196
-0.000159502
-2.26983e-05
3.14482e-05
3.00039e-05
1.24139e-05
-5.01571e-08
-3.78026e-06
-2.69448e-06
-7.81473e-07
2.58291e-07
4.1876e-07
2.17163e-07
2.5954e-08
-4.75585e-08
-4.11123e-08
-1.42496e-08
2.56399e-09
6.112e-09
3.4591e-09
5.34282e-10
-6.84865e-10
-6.35997e-10
-2.29574e-10
3.62378e-11
9.52354e-11
5.44547e-11
8.24605e-12
-1.10952e-11
-1.02705e-11
-3.80606e-12
3.792e-13
1.3158e-12
7.6191e-13
1.93643e-13
4.92047e-14
1.52132e-13
2.43309e-13
2.14292e-13
9.47954e-14
-3.83637e-14
-1.27548e-13
-1.54227e-13
-1.29992e-13
-7.94514e-14
-2.64271e-14
1.33865e-14
3.40863e-14
3.75562e-14
2.98737e-14
1.78304e-14
6.60651e-15
-1.10493e-15
-4.82583e-15
-5.44208e-15
-4.3065e-15
-2.61157e-15
-1.11186e-15
-1.19007e-16
3.63538e-16
4.80022e-16
4.00834e-16
2.58029e-16
1.27664e-16
3.89017e-17
-7.82322e-18
-2.43446e-17
-2.41277e-17
-1.73679e-17
-9.96803e-18
-4.40926e-18
-1.11552e-18
4.02974e-19
8.3893e-19
7.58607e-19
5.16348e-19
2.8596e-19
1.25338e-19
3.64796e-20
-1.39076e-20
0.999961
0.997493
0.999962
1.01842
1.04211
1.02914
0.933617
0.744751
0.5
0.262537
0.0849758
-0.0133115
-0.0450396
-0.0384394
-0.0198576
-0.00471768
0.00251112
0.00368607
0.00225945
0.000669094
-0.000176905
-0.000349474
-0.000217239
-5.89605e-05
2.2113e-05
3.47796e-05
1.91931e-05
3.57793e-06
-3.2318e-06
-3.45354e-06
-1.52336e-06
-4.80473e-08
4.29811e-07
3.2249e-07
9.90302e-08
-2.79562e-08
-5.00298e-08
-2.68177e-08
-3.61799e-09
5.65287e-09
5.0719e-09
1.82066e-09
-2.81038e-10
-7.54009e-10
-4.38955e-10
-7.38273e-11
8.36596e-11
8.09203e-11
3.05537e-11
-3.61271e-12
-1.19147e-11
-7.30814e-12
-1.7096e-12
6.79217e-13
6.55973e-13
5.17158e-14
-1.68474e-13
3.23314e-14
3.3416e-13
4.8927e-13
4.41289e-13
2.62364e-13
5.66451e-14
-9.98089e-14
-1.76249e-13
-1.78945e-13
-1.34164e-13
-7.22072e-14
-1.67205e-14
1.97869e-14
3.5297e-14
3.46511e-14
2.52375e-14
1.36721e-14
4.15103e-15
-1.70056e-15
-4.10028e-15
-4.14794e-15
-3.05723e-15
-1.73598e-15
-6.75742e-16
-2.73453e-17
2.59283e-16
3.0975e-16
2.4597e-16
1.52422e-16
7.2885e-17
2.13118e-17
-4.67412e-18
-1.33494e-17
-1.29162e-17
-9.15041e-18
-5.20415e-18
-2.31059e-18
-6.22748e-19
1.50917e-19
3.79151e-19
3.50486e-19
2.43499e-19
1.14674e-19
1.00021
0.998989
0.996922
1.00302
1.02396
1.0442
1.02381
0.923771
0.737463
0.5
0.268847
0.0928295
-0.00829713
-0.0442768
-0.0406094
-0.0227243
-0.00671456
0.00178129
0.00382595
0.00268654
0.001003
-4.24486e-05
-0.000355818
-0.000270828
-0.000101219
6.15712e-06
3.63676e-05
2.58328e-05
8.25193e-06
-1.80508e-06
-3.89324e-06
-2.32337e-06
-5.09073e-07
3.42821e-07
4.06035e-07
1.88693e-07
1.12936e-08
-4.98814e-08
-3.9188e-08
-1.2636e-08
3.0569e-09
6.05571e-09
3.34645e-09
4.99698e-10
-6.78319e-10
-6.31202e-10
-2.34233e-10
3.04901e-11
9.38822e-11
5.67126e-11
1.12159e-11
-9.16025e-12
-9.57944e-12
-3.95222e-12
-2.68313e-13
3.35145e-13
-3.92322e-13
-8.98177e-13
-7.28712e-13
-1.57195e-13
3.98743e-13
6.93274e-13
6.93991e-13
4.96828e-13
2.30748e-13
-1.92614e-15
-1.47685e-13
-1.98856e-13
-1.78072e-13
-1.19819e-13
-5.55188e-14
-5.34531e-15
2.32016e-14
3.21528e-14
2.82563e-14
1.87939e-14
9.13859e-15
2.06033e-15
-1.81525e-15
-3.10678e-15
-2.84803e-15
-1.96113e-15
-1.04331e-15
-3.68232e-16
1.46143e-17
1.67845e-16
1.83541e-16
1.39112e-16
8.32059e-17
3.85448e-17
1.08363e-17
-2.57655e-18
-6.81709e-18
-6.45309e-18
-4.50729e-18
-2.54391e-18
-1.13447e-18
-3.22178e-19
4.30734e-20
1.85583e-19
1.00013
1
0.997981
0.997159
1.00648
1.02865
1.04519
1.0185
0.915024
0.731153
0.5
0.274394
0.0999444
-0.00347339
-0.0432147
-0.0423674
-0.025367
-0.00872811
0.000913719
0.00384278
0.00306586
0.00135109
0.000126998
-0.000336704
-0.000316604
-0.000147094
-1.60181e-05
3.41025e-05
3.16251e-05
1.36644e-05
5.30393e-07
-3.87081e-06
-3.0801e-06
-1.09846e-06
1.40984e-07
4.45232e-07
2.83651e-07
6.95991e-08
-3.71387e-08
-4.8494e-08
-2.35641e-08
-1.97186e-09
5.87416e-09
4.81601e-09
1.62137e-09
-3.3568e-10
-7.40791e-10
-4.21954e-10
-6.97703e-11
8.11825e-11
7.92038e-11
3.15634e-11
-9.91306e-13
-9.09459e-12
-5.08952e-12
-4.53554e-13
8.23886e-13
-2.49184e-13
-1.58569e-12
-2.0361e-12
-1.55714e-12
-6.37486e-13
2.24525e-13
7.51201e-13
8.9346e-13
7.46552e-13
4.57915e-13
1.60813e-13
-5.98692e-14
-1.74086e-13
-1.94271e-13
-1.54785e-13
-9.26347e-14
-3.51839e-14
3.91121e-15
2.26476e-14
2.58573e-14
2.04775e-14
1.24292e-14
5.35403e-15
7.00019e-16
-1.5567e-15
-2.11589e-15
-1.77716e-15
-1.14811e-15
-5.73003e-16
-1.81603e-16
2.49959e-17
9.93888e-17
1.00644e-16
7.31133e-17
4.23395e-17
1.90569e-17
5.17187e-18
-1.31084e-18
-3.26025e-18
-3.02835e-18
-2.08778e-18
-1.18838e-18
-3.9284e-19
1.00003
1.00026
0.999477
0.997178
0.998022
1.01001
1.03255
1.04539
1.01331
0.90717
0.725606
0.5
0.279329
0.106439
0.00115474
-0.041932
-0.0437761
-0.0277924
-0.0107283
-6.2262e-05
0.00374582
0.00339021
0.00170247
0.000325544
-0.000292008
-0.000351728
-0.000194215
-4.36511e-05
2.76072e-05
3.59344e-05
1.94425e-05
3.72374e-06
-3.28056e-06
-3.68834e-06
-1.77217e-06
-1.80246e-07
4.20168e-07
3.69979e-07
1.43349e-07
-9.59764e-09
-5.17626e-08
-3.49116e-08
-9.34242e-09
4.07872e-09
5.86165e-09
2.9635e-09
3.10187e-10
-6.99507e-10
-5.98637e-10
-2.1197e-10
3.31586e-11
8.82197e-11
5.2237e-11
1.08868e-11
-6.17255e-12
-5.01094e-12
6.82766e-13
3.30528e-12
2.15011e-12
-4.99663e-13
-2.54941e-12
-3.18254e-12
-2.60517e-12
-1.4358e-12
-2.57193e-13
5.75638e-13
9.51507e-13
9.36386e-13
6.84005e-13
3.56893e-13
7.50031e-14
-1.03331e-13
-1.74047e-13
-1.65927e-13
-1.17679e-13
-6.17633e-14
-1.74393e-14
8.784e-15
1.88845e-14
1.84832e-14
1.32928e-14
7.36227e-15
2.75749e-15
2.34307e-17
-1.13805e-15
-1.30768e-15
-1.01674e-15
-6.19042e-16
-2.90303e-16
-8.16093e-17
2.12524e-17
5.4275e-17
5.14313e-17
3.59645e-17
2.02293e-17
8.87564e-18
2.33872e-18
-6.1901e-19
-1.46206e-18
-1.32491e-18
0.999982
1.00016
1.00019
0.998814
0.996675
0.999337
1.01347
1.03578
1.04504
1.0083
0.900056
0.720671
0.5
0.283765
0.112406
0.00559006
-0.0404869
-0.0448875
-0.0300111
-0.0126941
-0.0011218
0.00354557
0.00365566
0.00204819
0.000547226
-0.000222631
-0.000374148
-0.000240368
-7.5744e-05
1.67653e-05
3.82309e-05
2.51857e-05
7.65639e-06
-2.05941e-06
-4.049e-06
-2.47373e-06
-6.13084e-07
3.15741e-07
4.32726e-07
2.26279e-07
3.32726e-08
-4.63188e-08
-4.47955e-08
-1.85533e-08
3.90488e-10
6.09575e-09
4.32963e-09
1.24579e-09
-4.48698e-10
-7.14264e-10
-3.77437e-10
-5.25623e-11
7.54214e-11
6.65647e-11
2.22959e-11
-3.9341e-12
-6.5383e-12
9.70012e-13
6.92932e-12
7.52587e-12
4.29268e-12
1.52278e-13
-2.85356e-12
-4.04146e-12
-3.68244e-12
-2.44905e-12
-1.01687e-12
1.40585e-13
8.09379e-13
9.97161e-13
8.46173e-13
5.38866e-13
2.2715e-13
-9.14197e-16
-1.20544e-13
-1.4975e-13
-1.2429e-13
-7.84478e-14
-3.53755e-14
-5.64843e-15
9.5118e-15
1.37374e-14
1.1854e-14
7.79871e-15
3.93839e-15
1.24448e-15
-2.04322e-16
-7.3312e-16
-7.40425e-16
-5.37781e-16
-3.0994e-16
-1.36793e-16
-3.356e-17
1.40803e-17
2.75433e-17
2.4649e-17
1.66615e-17
9.12087e-18
4.00182e-18
3.98372e-19
0.999983
1.00003
1.00026
0.999957
0.998132
0.996485
1.00096
1.01677
1.03844
1.04428
1.00347
0.893561
0.716235
0.5
0.287787
0.11792
0.00983944
-0.0389223
-0.0457452
-0.0320359
-0.0146108
-0.00224409
0.00325288
0.00386074
0.00238115
0.000786327
-0.00013018
-0.000382519
-0.00028358
-0.000111168
1.68149e-06
3.81078e-05
3.04963e-05
1.21584e-05
-1.87578e-07
-4.07657e-06
-3.1397e-06
-1.13857e-06
1.23036e-07
4.5745e-07
3.10104e-07
9.02059e-08
-3.0128e-08
-5.11542e-08
-2.87246e-08
-5.24311e-09
5.165e-09
5.46587e-09
2.40043e-09
4.7232e-11
-7.14915e-10
-5.34243e-10
-1.66823e-10
3.9541e-11
7.15981e-11
3.06393e-11
-5.78185e-12
-1.46725e-11
-5.46771e-12
6.52059e-12
1.27413e-11
1.21603e-11
7.52732e-12
2.04924e-12
-2.15821e-12
-4.2916e-12
-4.50799e-12
-3.46279e-12
-1.92099e-12
-4.96822e-13
4.66615e-13
8.94501e-13
8.97098e-13
6.61041e-13
3.60329e-13
1.08848e-13
-4.70879e-14
-1.11213e-13
-1.12083e-13
-8.21659e-14
-4.60727e-14
-1.72246e-14
2.60353e-16
7.79444e-15
8.87558e-15
6.88996e-15
4.1722e-15
1.91641e-15
4.84245e-16
-2.13914e-16
-4.25232e-16
-3.87487e-16
-2.64966e-16
-1.45152e-16
-6.03872e-17
-1.26462e-17
8.02762e-18
1.30741e-17
1.12134e-17
6.52835e-18
0.999994
0.999978
1.00012
1.0003
0.999599
0.997507
0.996583
1.00278
1.01986
1.04061
1.04321
0.998845
0.887594
0.712213
0.5
0.291459
0.123039
0.0139117
-0.0372711
-0.0463857
-0.0338802
-0.0164687
-0.00341188
0.00287833
0.00400571
0.00269582
0.00103755
-1.67195e-05
-0.000376094
-0.000322165
-0.000148743
-1.73631e-05
3.52842e-05
3.50019e-05
1.7025e-05
2.3144e-06
-3.70406e-06
-3.70485e-06
-1.72852e-06
-1.60061e-07
4.31511e-07
3.8528e-07
1.58214e-07
-2.04439e-09
-5.19702e-08
-3.86728e-08
-1.26198e-08
2.80059e-09
6.08702e-09
3.64452e-09
7.86326e-10
-5.56528e-10
-6.44739e-10
-2.90395e-10
-1.08657e-11
7.34862e-11
4.16913e-11
-8.42031e-12
-3.07339e-11
-2.45387e-11
-6.38825e-12
9.47762e-12
1.70568e-11
1.67257e-11
1.16344e-11
5.14071e-12
-3.62913e-13
-3.71739e-12
-4.81494e-12
-4.22371e-12
-2.77241e-12
-1.21027e-12
-1.49522e-14
6.426e-13
8.22103e-13
6.95722e-13
4.44953e-13
2.00893e-13
2.84118e-14
-6.10245e-14
-8.59515e-14
-7.38849e-14
-4.83423e-14
-2.39452e-14
-6.90081e-15
2.18849e-15
5.35654e-15
5.17037e-15
3.66452e-15
2.05218e-15
8.53055e-16
1.54535e-16
-1.53352e-16
-2.25546e-16
-1.88908e-16
-1.22434e-16
-6.40046e-17
-2.50936e-17
-4.64106e-18
5.91038e-18
1
0.999978
1.00001
1.00021
1.00025
0.999162
0.996984
0.996931
1.00472
1.02272
1.04237
1.04193
0.99441
0.88208
0.708541
0.5
0.294834
0.127814
0.0178165
-0.035558
-0.0468395
-0.0355575
-0.0182615
-0.00461091
0.00243196
0.00409206
0.00298801
0.00129613
0.000115423
-0.000354624
-0.00035473
-0.000187304
-3.99542e-05
2.95993e-05
3.83716e-05
2.20318e-05
5.39077e-06
-2.88566e-06
-4.10654e-06
-2.34794e-06
-5.28882e-07
3.45068e-07
4.41811e-07
2.32815e-07
3.80453e-08
-4.5474e-08
-4.70121e-08
-2.12786e-08
-1.1369e-09
5.91108e-09
4.79781e-09
1.7184e-09
-2.22293e-10
-6.81862e-10
-4.06256e-10
-6.49031e-11
8.50998e-11
7.23043e-11
5.05355e-12
-4.31044e-11
-5.29123e-11
-3.63151e-11
-1.17133e-11
8.2908e-12
1.88296e-11
2.03794e-11
1.59252e-11
8.95742e-12
2.31921e-12
-2.31168e-12
-4.45717e-12
-4.53126e-12
-3.37796e-12
-1.84706e-12
-5.33027e-13
2.97588e-13
6.4204e-13
6.409e-13
4.6715e-13
2.57709e-13
8.99353e-14
-1.12725e-14
-5.35638e-14
-5.75066e-14
-4.34374e-14
-2.55291e-14
-1.10277e-14
-2.03404e-15
2.16004e-15
3.22861e-15
2.74991e-15
1.79914e-15
9.34879e-16
3.48653e-16
3.35318e-17
-9.12592e-17
-1.10696e-16
-8.63181e-17
-5.4047e-17
-2.11266e-17
1
0.999992
0.999971
1.00006
1.00029
1.00011
0.998686
0.996583
0.997489
1.00671
1.02537
1.04378
1.04049
0.990161
0.876961
0.705166
0.5
0.297951
0.132283
0.0215636
-0.0338022
-0.0471324
-0.0370806
-0.0199854
-0.00582946
0.00192307
0.00412207
0.00325471
0.00155785
0.0002638
-0.000318255
-0.000380175
-0.000225738
-6.55836e-05
2.10018e-05
4.03256e-05
2.69479e-05
8.95689e-06
-1.59756e-06
-4.28826e-06
-2.9575e-06
-9.72494e-07
1.91736e-07
4.69997e-07
3.08365e-07
8.9176e-08
-3.03164e-08
-5.227e-08
-3.05176e-08
-6.61808e-09
4.70512e-09
5.65614e-09
2.75032e-09
2.68286e-10
-6.45757e-10
-5.19598e-10
-1.29647e-10
1.0869e-10
1.39135e-10
6.17148e-11
-2.31537e-11
-6.86774e-11
-7.24379e-11
-5.10194e-11
-2.21286e-11
2.43067e-12
1.73577e-11
2.22159e-11
1.94747e-11
1.27494e-11
5.40687e-12
-2.97431e-13
-3.4669e-12
-4.30608e-12
-3.61193e-12
-2.27879e-12
-9.806e-13
-6.42966e-14
4.02641e-13
5.17466e-13
4.30707e-13
2.73449e-13
1.27881e-13
2.85077e-14
-2.24516e-14
-3.8013e-14
-3.40665e-14
-2.30365e-14
-1.2189e-14
-4.47618e-15
-1.96799e-16
1.51835e-15
1.75102e-15
1.34936e-15
8.2173e-16
3.96976e-16
1.31009e-16
-1.48918e-18
-4.76188e-17
-5.13462e-17
1
1
0.99998
0.999981
1.00013
1.00033
0.999903
0.998204
0.996314
0.998219
1.00873
1.02779
1.04489
1.03892
0.986088
0.872186
0.702049
0.5
0.300845
0.136483
0.0251626
-0.0320184
-0.0472861
-0.0384617
-0.0216386
-0.00705794
0.0013602
0.00409858
0.0034938
0.00181902
0.00042595
-0.000267441
-0.000397667
-0.000263018
-9.36835e-05
9.53536e-06
4.06398e-05
3.15468e-05
1.2906e-05
1.62696e-07
-4.20216e-06
-3.51595e-06
-1.47456e-06
-3.10673e-08
4.61091e-07
3.78444e-07
1.4934e-07
-5.70409e-09
-5.30143e-08
-3.9438e-08
-1.34197e-08
2.33735e-09
6.04003e-09
3.77982e-09
8.77606e-10
-5.59919e-10
-6.67401e-10
-2.51102e-10
1.08049e-10
2.30325e-10
1.76253e-10
6.19783e-11
-3.35546e-11
-8.23076e-11
-8.82902e-11
-6.75132e-11
-3.64539e-11
-7.43065e-12
1.25875e-11
2.16302e-11
2.14515e-11
1.57291e-11
8.29779e-12
1.94055e-12
-2.0408e-12
-3.60814e-12
-3.44926e-12
-2.43808e-12
-1.27897e-12
-3.72452e-13
1.56986e-13
3.59069e-13
3.52593e-13
2.53203e-13
1.4038e-13
5.34355e-14
2.08634e-15
-1.97687e-14
-2.32159e-14
-1.81688e-14
-1.11291e-14
-5.28916e-15
-1.57004e-15
2.78794e-16
8.92667e-16
8.69112e-16
6.16313e-16
3.51115e-16
1.61252e-16
2.12174e-17
1
1
0.999995
0.99997
1.00001
1.0002
1.00032
0.999638
0.997741
0.996174
0.999086
1.01073
1.03001
1.04575
1.03727
0.982184
0.867717
0.699155
0.5
0.303542
0.14044
0.0286225
-0.0302183
-0.0473191
-0.0397121
-0.0232206
-0.00828853
0.000751047
0.00402473
0.00370393
0.00207651
0.00059947
-0.000202868
-0.000406618
-0.000298222
-0.000123655
-4.67632e-06
3.91468e-05
3.56146e-05
1.71156e-05
2.37783e-06
-3.81076e-06
-3.98232e-06
-2.0144e-06
-3.22051e-07
4.07825e-07
4.3626e-07
2.15584e-07
2.8496e-08
-4.79953e-08
-4.70288e-08
-2.1139e-08
-1.19112e-09
5.84627e-09
4.75208e-09
1.60399e-09
-4.26396e-10
-8.90121e-10
-5.07444e-10
-6.15234e-12
2.75243e-10
3.14448e-10
2.16027e-10
8.36138e-11
-2.28629e-11
-8.27527e-11
-9.85189e-11
-8.30622e-11
-5.21141e-11
-1.95885e-11
5.21929e-12
1.85687e-11
2.13982e-11
1.7315e-11
1.04523e-11
3.97879e-12
-4.67984e-13
-2.60399e-12
-2.95995e-12
-2.32916e-12
-1.3957e-12
-5.80932e-13
-5.08221e-14
2.00071e-13
2.55283e-13
2.08937e-13
1.31796e-13
6.33217e-14
1.77639e-14
-5.53533e-15
-1.32601e-14
-1.26006e-14
-8.83705e-15
-4.93747e-15
-2.09095e-15
-4.48652e-16
2.79297e-16
4.641e-16
4.02613e-16
2.34696e-16
1
1
1
0.999986
0.999968
1.00005
1.00027
1.00027
0.999331
0.997313
0.996157
1.00006
1.01269
1.03204
1.04639
1.03556
0.978436
0.863517
0.696458
0.5
0.306067
0.144179
0.0319521
-0.0284107
-0.0472471
-0.0408424
-0.0247318
-0.00951485
0.000102559
0.00390383
0.00388439
0.00232765
0.000782063
-0.000125388
-0.000406654
-0.000330536
-0.00015489
-2.1445e-05
3.57346e-05
3.89561e-05
2.14541e-05
5.01315e-06
-3.08782e-06
-4.31772e-06
-2.56816e-06
-6.76203e-07
3.04811e-07
4.75052e-07
2.84169e-07
7.16953e-08
-3.62961e-08
-5.23036e-08
-2.92772e-08
-5.77991e-09
5.05311e-09
5.69655e-09
2.54453e-09
-1.47226e-10
-1.15324e-09
-9.47549e-10
-3.43557e-10
1.45863e-10
3.6904e-10
3.75273e-10
2.66564e-10
1.2682e-10
6.73837e-12
-7.04983e-11
-1.01189e-10
-9.44802e-11
-6.60217e-11
-3.17916e-11
-3.45625e-12
1.35606e-11
1.93544e-11
1.72828e-11
1.15388e-11
5.47815e-12
9.6322e-13
-1.50428e-12
-2.27388e-12
-2.0137e-12
-1.34424e-12
-6.75411e-13
-1.95233e-13
6.63723e-14
1.59461e-13
1.54472e-13
1.09764e-13
6.12753e-14
2.49302e-14
3.70495e-15
-5.56127e-15
-7.5576e-15
-6.20095e-15
-3.95996e-15
-2.02478e-15
-7.50455e-16
-9.15012e-17
2.33142e-16
1
1
1
0.999999
0.999976
0.999976
1.0001
1.00032
1.00018
0.998997
0.996934
0.996254
1.00112
1.01461
1.03388
1.04684
1.0338
0.974837
0.85956
0.693933
0.5
0.308436
0.147722
0.0351593
-0.0266028
-0.0470838
-0.0418621
-0.0261734
-0.0107318
-0.000579061
0.00373921
0.00403491
0.00257022
0.000971575
-3.59692e-05
-0.000397589
-0.000359261
-0.000186791
-4.05324e-05
3.03429e-05
4.13993e-05
2.57856e-05
8.01927e-06
-2.01857e-06
-4.48685e-06
-3.10997e-06
-1.08509e-06
1.48827e-07
4.88499e-07
3.50812e-07
1.22608e-07
-1.7442e-08
-5.44539e-08
-3.73895e-08
-1.13577e-08
3.62255e-09
6.67279e-09
3.89553e-09
5.30732e-10
-1.2524e-09
-1.48188e-09
-9.37451e-10
-2.78262e-10
1.85712e-10
3.99707e-10
4.19692e-10
3.24606e-10
1.83775e-10
4.89848e-11
-4.78915e-11
-9.54052e-11
-9.93153e-11
-7.55259e-11
-4.18683e-11
-1.19183e-11
7.54007e-12
1.57968e-11
1.57808e-11
1.14929e-11
6.26144e-12
2.04182e-12
-5.00218e-13
-1.53502e-12
-1.58246e-12
-1.16971e-12
-6.68876e-13
-2.70693e-13
-2.86524e-14
7.94133e-14
1.01487e-13
8.22443e-14
5.18244e-14
2.55659e-14
8.35283e-15
-5.07287e-16
-3.68367e-15
-3.82736e-15
-2.80289e-15
-1.67225e-15
-5.82119e-16
1
1
1
1
0.999993
0.999969
0.999995
1.00016
1.00035
1.00004
0.998649
0.99661
0.996454
1.00224
1.01647
1.03556
1.04713
1.03202
0.971377
0.855821
0.691564
0.5
0.310668
0.151087
0.0382517
-0.0248
-0.0468406
-0.0427801
-0.0275469
-0.0119352
-0.00128828
0.0035342
0.00415565
0.00280238
0.00116601
6.43519e-05
-0.000379392
-0.000383812
-0.000218782
-6.16627e-05
2.29581e-05
4.27974e-05
2.99746e-05
1.13349e-05
-5.99488e-07
-4.45915e-06
-3.6131e-06
-1.5373e-06
-6.10019e-08
4.71144e-07
4.11034e-07
1.7943e-07
8.62839e-09
-5.29169e-08
-4.52151e-08
-1.80597e-08
1.29755e-09
7.57768e-09
5.81047e-09
1.95352e-09
-7.89889e-10
-1.79115e-09
-1.61881e-09
-9.85134e-10
-3.40565e-10
1.27423e-10
3.81005e-10
4.47167e-10
3.79718e-10
2.42545e-10
9.54795e-11
-1.88714e-11
-8.18827e-11
-9.66203e-11
-7.91022e-11
-4.82687e-11
-1.88232e-11
1.55555e-12
1.14524e-11
1.32319e-11
1.04875e-11
6.3277e-12
2.67121e-12
2.79419e-13
-8.63006e-13
-1.12603e-12
-9.29642e-13
-5.9076e-13
-2.86996e-13
-8.34234e-14
2.17105e-14
5.74559e-14
5.55074e-14
3.93221e-14
2.22013e-14
9.56533e-15
2.19739e-15
-1.12314e-15
-2.01176e-15
-1.70187e-15
1
1
1
1
1
0.999985
0.999966
1.00002
1.00022
1.00036
0.999873
0.998298
0.996344
0.996747
1.00341
1.01826
1.03708
1.04729
1.03022
0.968048
0.852278
0.689332
0.5
0.312776
0.154289
0.0412361
-0.0230068
-0.0465277
-0.0436044
-0.0288545
-0.0131217
-0.0020202
0.00329203
0.00424704
0.00302265
0.00136354
0.0001745
-0.000352164
-0.000403711
-0.000250322
-8.45349e-05
1.36086e-05
4.30305e-05
3.38903e-05
1.48897e-05
1.16237e-06
-4.2096e-06
-4.05099e-06
-2.01903e-06
-3.23191e-07
4.18735e-07
4.60582e-07
2.4019e-07
4.18204e-08
-4.72123e-08
-5.26222e-08
-2.62973e-08
-2.5903e-09
7.86868e-09
8.10413e-09
4.31405e-09
6.77625e-10
-1.36058e-09
-1.9539e-09
-1.70878e-09
-1.1276e-09
-5.06204e-10
2.19041e-12
3.26311e-10
4.53599e-10
4.19898e-10
2.91226e-10
1.37822e-10
1.17892e-11
-6.28447e-11
-8.71027e-11
-7.65965e-11
-5.03552e-11
-2.33077e-11
-3.50986e-12
7.07272e-12
1.01766e-11
8.84185e-12
5.81347e-12
2.86464e-12
7.82307e-13
-3.32105e-13
-7.14061e-13
-6.76979e-13
-4.75007e-13
-2.61993e-13
-1.045e-13
-1.35838e-14
2.54598e-14
3.33246e-14
2.7011e-14
1.71174e-14
8.66991e-15
3.26567e-15
-3.04719e-16
1
1
1
1
1
0.999999
0.999977
0.999969
1.00006
1.00027
1.00034
0.999674
0.997952
0.996139
0.997122
1.00461
1.01999
1.03846
1.04732
1.02841
0.964841
0.848913
0.687224
0.5
0.314771
0.157342
0.0441189
-0.0212264
-0.0461536
-0.0443425
-0.0300982
-0.0142888
-0.00277045
0.0030158
0.00430973
0.00322985
0.00156249
0.000293389
-0.000316114
-0.000418577
-0.000280908
-0.000108832
2.35844e-06
4.2005e-05
3.74089e-05
1.8607e-05
3.25027e-06
-3.71936e-06
-4.39837e-06
-2.51486e-06
-6.34191e-07
3.28328e-07
4.95731e-07
3.0315e-07
8.23298e-08
-3.64847e-08
-5.92074e-08
-3.6502e-08
-9.071e-09
6.40261e-09
9.93597e-09
7.27308e-09
3.29362e-09
2.77843e-10
-1.35478e-09
-1.91856e-09
-1.81142e-09
-1.33669e-09
-7.23499e-10
-1.53907e-10
2.48122e-10
4.35865e-10
4.36295e-10
3.21141e-10
1.69424e-10
3.9506e-11
-4.13909e-11
-7.27316e-11
-6.90377e-11
-4.83939e-11
-2.51062e-11
-7.11543e-12
3.25381e-12
7.12282e-12
6.91435e-12
4.92709e-12
2.7124e-12
1.02211e-12
3.14279e-14
-3.86509e-13
-4.49907e-13
-3.51005e-13
-2.14782e-13
-1.02157e-13
-3.04856e-14
5.19454e-15
1.71197e-14
1.67381e-14
1.20692e-14
5.71829e-15
1
1
1
1
1
1
0.999994
0.99997
0.999978
1.0001
1.00032
1.00029
0.999453
0.997619
0.995994
0.997568
1.00583
1.02164
1.03971
1.04725
1.0266
0.961748
0.845711
0.685229
0.5
0.316664
0.160259
0.0469061
-0.0194615
-0.0457261
-0.045001
-0.0312804
-0.0154344
-0.0035352
0.00270848
0.00434457
0.00342307
0.00176139
0.000419943
-0.000271537
-0.000428126
-0.00031008
-0.000134231
-1.06977e-05
3.96539e-05
4.04166e-05
2.24063e-05
5.63894e-06
-2.97599e-06
-4.63226e-06
-3.00882e-06
-9.89089e-07
1.9791e-07
5.13158e-07
3.66899e-07
1.30991e-07
-1.89226e-08
-6.35775e-08
-4.84267e-08
-1.90167e-08
1.6716e-09
9.74675e-09
9.66196e-09
6.48448e-09
3.12778e-09
5.94261e-10
-1.00924e-09
-1.79986e-09
-1.92007e-09
-1.55341e-09
-9.36291e-10
-3.08091e-10
1.58441e-10
3.94707e-10
4.25715e-10
3.28452e-10
1.86608e-10
6.08083e-11
-2.06614e-11
-5.6053e-11
-5.81721e-11
-4.33129e-11
-2.44854e-11
-9.10616e-12
3.43131e-13
4.44504e-12
5.01551e-12
3.88354e-12
2.33906e-12
1.0545e-12
2.38999e-13
-1.55314e-13
-2.68908e-13
-2.38953e-13
-1.61147e-13
-8.67436e-14
-3.46163e-14
-5.56718e-15
6.52817e-15
9.67551e-15
1
1
1
1
1
1
1
0.999988
0.999965
0.999994
1.00015
1.00035
1.00022
0.999214
0.997304
0.995908
0.998077
1.00706
1.02322
1.04084
1.04708
1.0248
0.958764
0.842658
0.683336
0.5
0.318465
0.16305
0.0496032
-0.0177142
-0.0452515
-0.0455862
-0.0324034
-0.016557
-0.00431106
0.00237287
0.00435251
0.00360162
0.00195888
0.000553114
-0.000218795
-0.000432155
-0.000337426
-0.000160408
-2.54402e-05