# Region      : all 
# Cells       : 7700
# Volume      : 4.962599e-03
# Time        	volIntegrate(alpha.water)
0.00119048    	6.190941e-04
0.00258503    	6.190941e-04
0.00422003    	6.190941e-04
0.00612753    	6.190941e-04
0.00832115    	6.190941e-04
0.0109261     	6.190941e-04
0.0139318     	6.190941e-04
0.0175386     	6.190941e-04
0.0215963     	6.190941e-04
0.0263302     	6.190941e-04
0.0310642     	6.190941e-04
0.0357981     	6.190941e-04
0.0405321     	6.190941e-04
0.0436881     	6.190941e-04
0.046844      	6.190941e-04
0.05          	6.190941e-04
0.0533333     	6.190941e-04
0.0569231     	6.190941e-04
0.0605128     	6.190941e-04
0.0638034     	6.190941e-04
0.067094      	6.190941e-04
0.0703846     	6.190941e-04
0.0736752     	6.190941e-04
0.0766002     	6.190941e-04
0.0795252     	6.190940e-04
0.0824501     	6.190940e-04
0.0853751     	6.190940e-04
0.0883001     	6.190940e-04
0.0906401     	6.190940e-04
0.0929801     	6.190940e-04
0.09532       	6.190940e-04
0.09766       	6.190940e-04
0.09883       	6.190940e-04
0.1           	6.190940e-04
0.101389      	6.190940e-04
0.102957      	6.190940e-04
0.104699      	6.190940e-04
0.106511      	6.190940e-04
0.108065      	6.190940e-04
0.109462      	6.190940e-04
0.110729      	6.190940e-04
0.111919      	6.190939e-04
0.113039      	6.190939e-04
0.114126      	6.190939e-04
0.115213      	6.190939e-04
0.1163        	6.190939e-04
0.117354      	6.190939e-04
0.118407      	6.190939e-04
0.11946       	6.190939e-04
0.120478      	6.190939e-04
0.121496      	6.190939e-04
0.122479      	6.190939e-04
0.123428      	6.190939e-04
0.124377      	6.190939e-04
0.125326      	6.190939e-04
0.126275      	6.190939e-04
0.127224      	6.190939e-04
0.128173      	6.190939e-04
0.129165      	6.190939e-04
0.130157      	6.190939e-04
0.131149      	6.190939e-04
0.132141      	6.190938e-04
0.133134      	6.190938e-04
0.134071      	6.190938e-04
0.135066      	6.190938e-04
0.136062      	6.190938e-04
0.137057      	6.190938e-04
0.138053      	6.190938e-04
0.139048      	6.190938e-04
0.140044      	6.190938e-04
0.14104       	6.190938e-04
0.142035      	6.190938e-04
0.143031      	6.190938e-04
0.144026      	6.190938e-04
0.145022      	6.190938e-04
0.146018      	6.190938e-04
0.147013      	6.190938e-04
0.148009      	6.190938e-04
0.149004      	6.190938e-04
0.15          	6.190938e-04
0.151111      	6.190937e-04
0.152333      	6.190937e-04
0.153588      	6.190937e-04
0.154842      	6.190937e-04
0.156096      	6.190937e-04
0.157351      	6.190937e-04
0.158605      	6.190937e-04
0.15986       	6.190937e-04
0.161114      	6.190937e-04
0.162368      	6.190937e-04
0.163623      	6.190937e-04
0.164877      	6.190937e-04
0.166132      	6.190937e-04
0.167386      	6.190937e-04
0.16864       	6.190937e-04
0.169846      	6.190937e-04
0.171053      	6.190937e-04
0.172259      	6.190937e-04
0.173465      	6.190937e-04
0.174671      	6.190937e-04
0.175877      	6.190937e-04
0.177083      	6.190937e-04
0.178356      	6.190937e-04
0.17963       	6.190937e-04
0.180903      	6.190937e-04
0.182176      	6.190937e-04
0.183449      	6.190937e-04
0.184722      	6.190937e-04
0.185995      	6.190937e-04
0.187269      	6.190937e-04
0.188542      	6.190937e-04
0.189815      	6.190937e-04
0.191088      	6.190937e-04
0.192361      	6.190937e-04
0.193634      	6.190938e-04
0.194907      	6.190938e-04
0.196181      	6.190938e-04
0.197454      	6.190938e-04
0.198727      	6.190938e-04
0.2           	6.190938e-04
0.201389      	6.190938e-04
0.202819      	6.190938e-04
0.204248      	6.190938e-04
0.205724      	6.190938e-04
0.2072        	6.190938e-04
0.208676      	6.190938e-04
0.210152      	6.190938e-04
0.211628      	6.190938e-04
0.213104      	6.190938e-04
0.214579      	6.190938e-04
0.215996      	6.190938e-04
0.217413      	6.190938e-04
0.21883       	6.190938e-04
0.220185      	6.190938e-04
0.22154       	6.190938e-04
0.222896      	6.190938e-04
0.224251      	6.190938e-04
0.225606      	6.190938e-04
0.22689       	6.190938e-04
0.228174      	6.190938e-04
0.229458      	6.190938e-04
0.230742      	6.190938e-04
0.232025      	6.190938e-04
0.233309      	6.190938e-04
0.234593      	6.190938e-04
0.235877      	6.190938e-04
0.237161      	6.190938e-04
0.238328      	6.190938e-04
0.239495      	6.190938e-04
0.240663      	6.190938e-04
0.24183       	6.190938e-04
0.242997      	6.190938e-04
0.244164      	6.190938e-04
0.245331      	6.190938e-04
0.246498      	6.190938e-04
0.247666      	6.190938e-04
0.248833      	6.190938e-04
0.25          	6.190938e-04
0.25122       	6.190938e-04
0.252439      	6.190938e-04
0.253628      	6.190938e-04
0.254848      	6.190938e-04
0.256069      	6.190938e-04
0.257256      	6.190938e-04
0.258477      	6.190938e-04
0.259664      	6.190938e-04
0.26085       	6.190938e-04
0.262073      	6.190938e-04
0.263259      	6.190938e-04
0.264444      	6.190938e-04
0.26567       	6.190938e-04
0.266896      	6.190938e-04
0.268078      	6.190938e-04
0.269306      	6.190938e-04
0.270534      	6.190938e-04
0.271762      	6.190938e-04
0.272989      	6.190938e-04
0.274217      	6.190938e-04
0.275445      	6.190938e-04
0.276673      	6.190938e-04
0.2779        	6.190938e-04
0.279128      	6.190938e-04
0.280356      	6.190938e-04
0.281584      	6.190938e-04
0.282899      	6.190938e-04
0.284121      	6.190938e-04
0.285342      	6.190938e-04
0.286675      	6.190938e-04
0.288007      	6.190938e-04
0.28934       	6.190938e-04
0.290672      	6.190938e-04
0.292005      	6.190938e-04
0.293337      	6.190938e-04
0.29467       	6.190938e-04
0.296002      	6.190938e-04
0.297335      	6.190938e-04
0.298667      	6.190938e-04
0.3           	6.190938e-04
0.301429      	6.190938e-04
0.302857      	6.190938e-04
0.304286      	6.190938e-04
0.305714      	6.190938e-04
0.307098      	6.190938e-04
0.308398      	6.190938e-04
0.309659      	6.190938e-04
0.310881      	6.190937e-04
0.312067      	6.190937e-04
0.313182      	6.190937e-04
0.314265      	6.190937e-04
0.315316      	6.190937e-04
0.316336      	6.190937e-04
0.317298      	6.190937e-04
0.318233      	6.190937e-04
0.31914       	6.190937e-04
0.320022      	6.190937e-04
0.320855      	6.190937e-04
0.321664      	6.190937e-04
0.322451      	6.190937e-04
0.323217      	6.190937e-04
0.323941      	6.190937e-04
0.324645      	6.190937e-04
0.32533       	6.190937e-04
0.325979      	6.190937e-04
0.326611      	6.190937e-04
0.327211      	6.190936e-04
0.327795      	6.190936e-04
0.328351      	6.190936e-04
0.328892      	6.190936e-04
0.32942       	6.190936e-04
0.329921      	6.190936e-04
0.330411      	6.190936e-04
0.330878      	6.190936e-04
0.331333      	6.190936e-04
0.331777      	6.190936e-04
0.332201      	6.190936e-04
0.332615      	6.190936e-04
0.333019      	6.190936e-04
0.333414      	6.190936e-04
0.3338        	6.190936e-04
0.334168      	6.190936e-04
0.334528      	6.190936e-04
0.33488       	6.190936e-04
0.335223      	6.190936e-04
0.335559      	6.190936e-04
0.335887      	6.190936e-04
0.336201      	6.190936e-04
0.336508      	6.190936e-04
0.336807      	6.190936e-04
0.337094      	6.190936e-04
0.337375      	6.190936e-04
0.337649      	6.190936e-04
0.337918      	6.190936e-04
0.33818       	6.190936e-04
0.338437      	6.190936e-04
0.338689      	6.190936e-04
0.338935      	6.190936e-04
0.33918       	6.190936e-04
0.339421      	6.190936e-04
0.339661      	6.190936e-04
0.339902      	6.190936e-04
0.340142      	6.190936e-04
0.340383      	6.190935e-04
0.340617      	6.190935e-04
0.340852      	6.190935e-04
0.341086      	6.190935e-04
0.341327      	6.190935e-04
0.341568      	6.190935e-04
0.341816      	6.190935e-04
0.342072      	6.190934e-04
0.342345      	6.190934e-04
0.342629      	6.190934e-04
0.342924      	6.190934e-04
0.343245      	6.190934e-04
0.343583      	6.190933e-04
0.34394       	6.190933e-04
0.344318      	6.190932e-04
0.344724      	6.190931e-04
0.345164      	6.190929e-04
0.345647      	6.190926e-04
0.346131      	6.190922e-04
0.346615      	6.190918e-04
0.347098      	6.190912e-04
0.347582      	6.190905e-04
0.348066      	6.190896e-04
0.348549      	6.190884e-04
0.349033      	6.190869e-04
0.349516      	6.190850e-04
0.35          	6.190826e-04
0.350538      	6.190788e-04
0.351113      	6.190730e-04
0.351695      	6.190651e-04
0.35227       	6.190550e-04
0.352852      	6.190420e-04
0.353441      	6.190257e-04
0.354038      	6.190055e-04
0.354627      	6.189812e-04
0.355217      	6.189516e-04
0.355806      	6.189156e-04
0.356403      	6.188698e-04
0.357         	6.188132e-04
0.357598      	6.187439e-04
0.358195      	6.186612e-04
0.358801      	6.185634e-04
0.359416      	6.184500e-04
0.36003       	6.183224e-04
0.360645      	6.181806e-04
0.36126       	6.180247e-04
0.361875      	6.178551e-04
0.36249       	6.176725e-04
0.363115      	6.174743e-04
0.363751      	6.172595e-04
0.364387      	6.170317e-04
0.365023      	6.167920e-04
0.365659      	6.165434e-04
0.366295      	6.162887e-04
0.366931      	6.160306e-04
0.367579      	6.157667e-04
0.368228      	6.155063e-04
0.36889       	6.152501e-04
0.369552      	6.150062e-04
0.370214      	6.147763e-04
0.370875      	6.145614e-04
0.371537      	6.143616e-04
0.372199      	6.141768e-04
0.372861      	6.140052e-04
0.373523      	6.138454e-04
0.374202      	6.136932e-04
0.374881      	6.135529e-04
0.37556       	6.134240e-04
0.376239      	6.133052e-04
0.376918      	6.131947e-04
0.377597      	6.130915e-04
0.378275      	6.129945e-04
0.378954      	6.129022e-04
0.379633      	6.128136e-04
0.380312      	6.127290e-04
0.380991      	6.126489e-04
0.38167       	6.125726e-04
0.382349      	6.125000e-04
0.383028      	6.124315e-04
0.383707      	6.123673e-04
0.384385      	6.123074e-04
0.385064      	6.122517e-04
0.385743      	6.122001e-04
0.386422      	6.121528e-04
0.387101      	6.121094e-04
0.38778       	6.120700e-04
0.388459      	6.120346e-04
0.389138      	6.120031e-04
0.389862      	6.119734e-04
0.390586      	6.119471e-04
0.39131       	6.119239e-04
0.3921        	6.119017e-04
0.39289       	6.118819e-04
0.39368       	6.118643e-04
0.39447       	6.118484e-04
0.39526       	6.118341e-04
0.39605       	6.118211e-04
0.39684       	6.118092e-04
0.39763       	6.117984e-04
0.39842       	6.117885e-04
0.39921       	6.117792e-04
0.4           	6.117707e-04
0.400893      	6.117616e-04
0.401895      	6.117521e-04
0.403014      	6.117421e-04
0.40425       	6.117315e-04
0.405596      	6.117200e-04
0.407076      	6.117064e-04
0.408609      	6.116891e-04
0.410201      	6.116652e-04
0.411793      	6.116313e-04
0.413321      	6.115862e-04
0.414916      	6.115248e-04
0.416441      	6.114473e-04
0.417967      	6.113572e-04
0.419492      	6.112543e-04
0.420945      	6.111474e-04
0.422398      	6.110341e-04
0.42385       	6.109212e-04
0.425227      	6.108201e-04
0.426603      	6.107210e-04
0.427979      	6.106289e-04
0.429275      	6.105477e-04
0.43057       	6.104692e-04
0.431865      	6.103919e-04
0.433161      	6.103189e-04
0.434456      	6.102466e-04
0.435652      	6.101794e-04
0.436847      	6.101018e-04
0.438043      	6.100147e-04
0.439239      	6.099246e-04
0.440434      	6.098238e-04
0.44163       	6.097109e-04
0.442826      	6.095877e-04
0.443851      	6.094760e-04
0.444876      	6.093625e-04
0.4459        	6.092486e-04
0.446925      	6.091360e-04
0.44795       	6.090258e-04
0.448975      	6.089181e-04
0.45          	6.088133e-04
0.45102       	6.087118e-04
0.45202       	6.086152e-04
0.452999      	6.085234e-04
0.453886      	6.084424e-04
0.454695      	6.083705e-04
0.455414      	6.083082e-04
0.45608       	6.082518e-04
0.456716      	6.081989e-04
0.457334      	6.081482e-04
0.457953      	6.080983e-04
0.458562      	6.080500e-04
0.459172      	6.080026e-04
0.45979       	6.079553e-04
0.460418      	6.079081e-04
0.461067      	6.078604e-04
0.461716      	6.078136e-04
0.4624        	6.077653e-04
0.463096      	6.077172e-04
0.463792      	6.076702e-04
0.464502      	6.076233e-04
0.465198      	6.075787e-04
0.465894      	6.075359e-04
0.466605      	6.074935e-04
0.467331      	6.074515e-04
0.468057      	6.074106e-04
0.468783      	6.073707e-04
0.469526      	6.073307e-04
0.470288      	6.072901e-04
0.47105       	6.072498e-04
0.471812      	6.072096e-04
0.472574      	6.071697e-04
0.473335      	6.071301e-04
0.474097      	6.070909e-04
0.474859      	6.070522e-04
0.475621      	6.070139e-04
0.476383      	6.069762e-04
0.477121      	6.069399e-04
0.477859      	6.069039e-04
0.478622      	6.068669e-04
0.479386      	6.068302e-04
0.480149      	6.067940e-04
0.480885      	6.067596e-04
0.48162       	6.067259e-04
0.482355      	6.066926e-04
0.483122      	6.066586e-04
0.483889      	6.066251e-04
0.484656      	6.065922e-04
0.485424      	6.065598e-04
0.486191      	6.065280e-04
0.486958      	6.064969e-04
0.487683      	6.064682e-04
0.488407      	6.064403e-04
0.489132      	6.064130e-04
0.489856      	6.063862e-04
0.490581      	6.063600e-04
0.491305      	6.063343e-04
0.49203       	6.063093e-04
0.492694      	6.062868e-04
0.493358      	6.062649e-04
0.494022      	6.062436e-04
0.494687      	6.062229e-04
0.495351      	6.062029e-04
0.496015      	6.061835e-04
0.496679      	6.061649e-04
0.497343      	6.061470e-04
0.498007      	6.061297e-04
0.498672      	6.061130e-04
0.499336      	6.060969e-04
0.5           	6.060815e-04
0.500704      	6.060660e-04
0.501419      	6.060509e-04
0.502133      	6.060367e-04
0.502848      	6.060230e-04
0.503562      	6.060100e-04
0.504276      	6.059975e-04
0.504991      	6.059855e-04
0.505705      	6.059740e-04
0.50642       	6.059630e-04
0.507134      	6.059523e-04
0.507849      	6.059418e-04
0.508563      	6.059315e-04
0.50929       	6.059211e-04
0.510004      	6.059111e-04
0.510718      	6.059012e-04
0.511433      	6.058916e-04
0.51216       	6.058822e-04
0.512888      	6.058732e-04
0.51363       	6.058645e-04
0.514372      	6.058564e-04
0.51513       	6.058487e-04
0.515888      	6.058415e-04
0.516647      	6.058348e-04
0.517388      	6.058287e-04
0.518112      	6.058233e-04
0.518837      	6.058183e-04
0.519579      	6.058136e-04
0.52034       	6.058092e-04
0.52112       	6.058050e-04
0.521922      	6.058011e-04
0.522748      	6.057974e-04
0.523574      	6.057941e-04
0.5244        	6.057910e-04
0.525253      	6.057882e-04
0.526107      	6.057856e-04
0.52696       	6.057832e-04
0.527813      	6.057810e-04
0.528701      	6.057789e-04
0.529588      	6.057770e-04
0.530476      	6.057752e-04
0.531363      	6.057736e-04
0.532251      	6.057721e-04
0.533138      	6.057707e-04
0.534025      	6.057695e-04
0.534913      	6.057683e-04
0.5358        	6.057673e-04
0.536688      	6.057664e-04
0.537575      	6.057655e-04
0.538463      	6.057648e-04
0.53935       	6.057641e-04
0.540238      	6.057635e-04
0.541125      	6.057629e-04
0.542013      	6.057622e-04
0.5429        	6.057616e-04
0.543788      	6.057610e-04
0.544564      	6.057604e-04
0.545341      	6.057598e-04
0.546117      	6.057592e-04
0.546894      	6.057585e-04
0.54767       	6.057579e-04
0.548447      	6.057572e-04
0.549223      	6.057565e-04
0.55          	6.057558e-04
0.550862      	6.057550e-04
0.55174       	6.057542e-04
0.552601      	6.057534e-04
0.553448      	6.057526e-04
0.554264      	6.057519e-04
0.555053      	6.057512e-04
0.555828      	6.057505e-04
0.55659       	6.057498e-04
0.557351      	6.057492e-04
0.558086      	6.057486e-04
0.558822      	6.057480e-04
0.559544      	6.057474e-04
0.560267      	6.057468e-04
0.560976      	6.057463e-04
0.561686      	6.057457e-04
0.562382      	6.057451e-04
0.563079      	6.057445e-04
0.563776      	6.057438e-04
0.564486      	6.057432e-04
0.565196      	6.057425e-04
0.565892      	6.057418e-04
0.566588      	6.057411e-04
0.567284      	6.057404e-04
0.567996      	6.057397e-04
0.568691      	6.057390e-04
0.569387      	6.057383e-04
0.570083      	6.057376e-04
0.570779      	6.057369e-04
0.571474      	6.057362e-04
0.57217       	6.057355e-04
0.572866      	6.057349e-04
0.57358       	6.057342e-04
0.574314      	6.057335e-04
0.575069      	6.057327e-04
0.575848      	6.057320e-04
0.576653      	6.057313e-04
0.577487      	6.057305e-04
0.578353      	6.057297e-04
0.579294      	6.057289e-04
0.58028       	6.057280e-04
0.581219      	6.057271e-04
0.582114      	6.057262e-04
0.583008      	6.057253e-04
0.583857      	6.057244e-04
0.584707      	6.057234e-04
0.585557      	6.057224e-04
0.586406      	6.057214e-04
0.587206      	6.057203e-04
0.588006      	6.057193e-04
0.588805      	6.057181e-04
0.589605      	6.057170e-04
0.590404      	6.057158e-04
0.591204      	6.057145e-04
0.592004      	6.057133e-04
0.592731      	6.057121e-04
0.593458      	6.057110e-04
0.594112      	6.057099e-04
0.594766      	6.057089e-04
0.595348      	6.057080e-04
0.595929      	6.057071e-04
0.596511      	6.057063e-04
0.597009      	6.057055e-04
0.597508      	6.057048e-04
0.598006      	6.057041e-04
0.598505      	6.057034e-04
0.599003      	6.057027e-04
0.599335      	6.057022e-04
0.599668      	6.057018e-04
0.6           	6.057013e-04
0.600376      	6.057008e-04
0.600793      	6.057003e-04
0.601225      	6.056998e-04
0.601645      	6.056993e-04
0.602058      	6.056988e-04
0.602468      	6.056984e-04
0.602874      	6.056979e-04
0.603277      	6.056975e-04
0.60368       	6.056971e-04
0.604083      	6.056967e-04
0.604493      	6.056963e-04
0.604906      	6.056959e-04
0.605328      	6.056955e-04
0.605753      	6.056951e-04
0.606187      	6.056947e-04
0.606612      	6.056943e-04
0.607038      	6.056939e-04
0.607467      	6.056936e-04
0.607897      	6.056932e-04
0.608327      	6.056928e-04
0.608761      	6.056924e-04
0.609195      	6.056920e-04
0.609629      	6.056916e-04
0.610068      	6.056912e-04
0.610507      	6.056908e-04
0.610945      	6.056904e-04
0.611389      	6.056900e-04
0.611833      	6.056896e-04
0.612277      	6.056891e-04
0.612726      	6.056887e-04
0.613192      	6.056882e-04
0.61367       	6.056877e-04
0.614154      	6.056872e-04
0.614652      	6.056867e-04
0.615157      	6.056862e-04
0.615662      	6.056856e-04
0.616167      	6.056850e-04
0.61668       	6.056844e-04
0.617185      	6.056838e-04
0.617689      	6.056831e-04
0.618202      	6.056824e-04
0.618723      	6.056817e-04
0.619245      	6.056810e-04
0.619766      	6.056802e-04
0.620278      	6.056794e-04
0.620791      	6.056786e-04
0.621295      	6.056777e-04
0.621789      	6.056768e-04
0.622284      	6.056758e-04
0.622779      	6.056748e-04
0.623274      	6.056737e-04
0.623769      	6.056726e-04
0.624274      	6.056715e-04
0.624768      	6.056703e-04
0.625263      	6.056691e-04
0.625758      	6.056679e-04
0.626263      	6.056667e-04
0.626779      	6.056654e-04
0.627307      	6.056641e-04
0.627834      	6.056628e-04
0.628375      	6.056614e-04
0.628929      	6.056600e-04
0.629484      	6.056586e-04
0.630054      	6.056573e-04
0.630624      	6.056559e-04
0.631211      	6.056545e-04
0.631817      	6.056531e-04
0.632423      	6.056518e-04
0.633051      	6.056503e-04
0.633679      	6.056489e-04
0.634331      	6.056474e-04
0.634984      	6.056459e-04
0.635667      	6.056444e-04
0.636349      	6.056429e-04
0.637032      	6.056414e-04
0.637752      	6.056398e-04
0.638473      	6.056382e-04
0.639193      	6.056367e-04
0.639914      	6.056352e-04
0.64069       	6.056337e-04
0.641465      	6.056322e-04
0.642241      	6.056308e-04
0.643017      	6.056295e-04
0.643793      	6.056282e-04
0.644569      	6.056270e-04
0.645345      	6.056258e-04
0.646121      	6.056246e-04
0.646897      	6.056235e-04
0.647672      	6.056224e-04
0.648448      	6.056214e-04
0.649224      	6.056203e-04
0.649612      	6.056198e-04
0.65          	6.056193e-04
0.650463      	6.056187e-04
0.651001      	6.056181e-04
0.651614      	6.056174e-04
0.652295      	6.056166e-04
0.653029      	6.056158e-04
0.653752      	6.056150e-04
0.654486      	6.056143e-04
0.65522       	6.056135e-04
0.655942      	6.056129e-04
0.656665      	6.056122e-04
0.657387      	6.056116e-04
0.658122      	6.056109e-04
0.658869      	6.056103e-04
0.659604      	6.056097e-04
0.660352      	6.056091e-04
0.661114      	6.056085e-04
0.661892      	6.056079e-04
0.662686      	6.056074e-04
0.663515      	6.056068e-04
0.664384      	6.056063e-04
0.665297      	6.056058e-04
0.666235      	6.056053e-04
0.667228      	6.056048e-04
0.668252      	6.056043e-04
0.669276      	6.056038e-04
0.670301      	6.056033e-04
0.671361      	6.056028e-04
0.672384      	6.056024e-04
0.67337       	6.056019e-04
0.674289      	6.056016e-04
0.675175      	6.056012e-04
0.676062      	6.056009e-04
0.676948      	6.056006e-04
0.677835      	6.056003e-04
0.678722      	6.056001e-04
0.679647      	6.055998e-04
0.680572      	6.055996e-04
0.681497      	6.055993e-04
0.682471      	6.055991e-04
0.683502      	6.055988e-04
0.684533      	6.055985e-04
0.685564      	6.055983e-04
0.686595      	6.055981e-04
0.687712      	6.055978e-04
0.688829      	6.055976e-04
0.689947      	6.055973e-04
0.691064      	6.055971e-04
0.692181      	6.055969e-04
0.693298      	6.055967e-04
0.694255      	6.055966e-04
0.695213      	6.055964e-04
0.69617       	6.055963e-04
0.697128      	6.055961e-04
0.698085      	6.055960e-04
0.699043      	6.055959e-04
0.7           	6.055957e-04
0.700962      	6.055956e-04
0.701905      	6.055955e-04
0.702848      	6.055954e-04
0.703772      	6.055953e-04
0.704697      	6.055952e-04
0.705621      	6.055951e-04
0.706546      	6.055951e-04
0.70747       	6.055950e-04
0.708395      	6.055949e-04
0.709363      	6.055948e-04
0.710354      	6.055948e-04
0.71137       	6.055947e-04
0.712387      	6.055946e-04
0.713432      	6.055945e-04
0.714507      	6.055944e-04
0.715583      	6.055943e-04
0.716658      	6.055943e-04
0.71777       	6.055942e-04
0.718881      	6.055941e-04
0.720034      	6.055940e-04
0.721186      	6.055940e-04
0.722339      	6.055939e-04
0.723491      	6.055939e-04
0.724696      	6.055938e-04
0.725901      	6.055938e-04
0.727106      	6.055937e-04
0.728311      	6.055937e-04
0.729516      	6.055937e-04
0.730721      	6.055936e-04
0.732006      	6.055936e-04
0.733291      	6.055936e-04
0.734577      	6.055935e-04
0.735862      	6.055935e-04
0.737147      	6.055935e-04
0.738433      	6.055935e-04
0.739718      	6.055935e-04
0.741003      	6.055935e-04
0.742288      	6.055935e-04
0.743574      	6.055935e-04
0.744859      	6.055935e-04
0.746144      	6.055935e-04
0.747429      	6.055935e-04
0.748715      	6.055935e-04
0.75          	6.055935e-04
0.751351      	6.055935e-04
0.752632      	6.055935e-04
0.753846      	6.055935e-04
0.75503       	6.055935e-04
0.756154      	6.055935e-04
0.75725       	6.055935e-04
0.758293      	6.055935e-04
0.759286      	6.055934e-04
0.760233      	6.055934e-04
0.761157      	6.055934e-04
0.76204       	6.055934e-04
0.762903      	6.055934e-04
0.763727      	6.055934e-04
0.764516      	6.055933e-04
0.765287      	6.055933e-04
0.76601       	6.055933e-04
0.76669       	6.055933e-04
0.767343      	6.055933e-04
0.767948      	6.055933e-04
0.76852       	6.055933e-04
0.769063      	6.055933e-04
0.769579      	6.055933e-04
0.770077      	6.055933e-04
0.770568      	6.055933e-04
0.771035      	6.055933e-04
0.771488      	6.055933e-04
0.771933      	6.055932e-04
0.772379      	6.055932e-04
0.772847      	6.055932e-04
0.773341      	6.055932e-04
0.773874      	6.055932e-04
0.774468      	6.055932e-04
0.775035      	6.055932e-04
0.775566      	6.055932e-04
0.776075      	6.055932e-04
0.776563      	6.055932e-04
0.777052      	6.055932e-04
0.777562      	6.055932e-04
0.778096      	6.055932e-04
0.77863       	6.055932e-04
0.779151      	6.055932e-04
0.779686      	6.055932e-04
0.780235      	6.055932e-04
0.780816      	6.055932e-04
0.781381      	6.055932e-04
0.781962      	6.055932e-04
0.782564      	6.055932e-04
0.783186      	6.055932e-04
0.783809      	6.055932e-04
0.784457      	6.055932e-04
0.785104      	6.055932e-04
0.785752      	6.055932e-04
0.7864        	6.055932e-04
0.787047      	6.055932e-04
0.787695      	6.055932e-04
0.78831       	6.055932e-04
0.788895      	6.055932e-04
0.789423      	6.055932e-04
0.789927      	6.055932e-04
0.790407      	6.055932e-04
0.790886      	6.055932e-04
0.791366      	6.055932e-04
0.791821      	6.055932e-04
0.792275      	6.055932e-04
0.792729      	6.055931e-04
0.793184      	6.055931e-04
0.793638      	6.055931e-04
0.794093      	6.055931e-04
0.794547      	6.055931e-04
0.795001      	6.055931e-04
0.795456      	6.055931e-04
0.79591       	6.055930e-04
0.796319      	6.055930e-04
0.796728      	6.055930e-04
0.797092      	6.055930e-04
0.797455      	6.055930e-04
0.797819      	6.055930e-04
0.798182      	6.055930e-04
0.798546      	6.055930e-04
0.798909      	6.055930e-04
0.799273      	6.055930e-04
0.799636      	6.055930e-04
0.8           	6.055930e-04
0.80041       	6.055930e-04
0.800869      	6.055930e-04
0.801381      	6.055930e-04
0.801953      	6.055930e-04
0.802585      	6.055930e-04
0.803226      	6.055930e-04
0.803894      	6.055930e-04
0.804572      	6.055930e-04
0.805271      	6.055930e-04
0.80597       	6.055930e-04
0.806692      	6.055930e-04
0.807426      	6.055930e-04
0.80816       	6.055929e-04
0.808907      	6.055929e-04
0.809668      	6.055929e-04
0.810429      	6.055929e-04
0.811205      	6.055929e-04
0.811996      	6.055929e-04
0.812788      	6.055929e-04
0.813597      	6.055929e-04
0.814406      	6.055929e-04
0.815197      	6.055928e-04
0.815988      	6.055928e-04
0.816761      	6.055928e-04
0.817534      	6.055928e-04
0.818307      	6.055928e-04
0.81908       	6.055928e-04
0.819853      	6.055928e-04
0.820626      	6.055928e-04
0.821399      	6.055928e-04
0.822193      	6.055928e-04
0.822988      	6.055927e-04
0.823782      	6.055927e-04
0.824602      	6.055927e-04
0.825421      	6.055927e-04
0.826269      	6.055927e-04
0.827148      	6.055927e-04
0.828026      	6.055927e-04
0.828942      	6.055927e-04
0.829858      	6.055927e-04
0.830817      	6.055927e-04
0.831776      	6.055927e-04
0.832788      	6.055927e-04
0.833745      	6.055927e-04
0.834648      	6.055927e-04
0.835501      	6.055927e-04
0.836353      	6.055927e-04
0.837156      	6.055927e-04
0.837959      	6.055927e-04
0.838762      	6.055927e-04
0.839626      	6.055927e-04
0.840491      	6.055927e-04
0.841442      	6.055927e-04
0.842393      	6.055927e-04
0.843343      	6.055927e-04
0.844294      	6.055927e-04
0.845245      	6.055927e-04
0.846196      	6.055927e-04
0.847147      	6.055927e-04
0.848098      	6.055927e-04
0.849049      	6.055927e-04
0.85          	6.055927e-04
0.851042      	6.055927e-04
0.85213       	6.055927e-04
0.853193      	6.055927e-04
0.854282      	6.055926e-04
0.855345      	6.055926e-04
0.856408      	6.055926e-04
0.857498      	6.055926e-04
0.858561      	6.055926e-04
0.859651      	6.055926e-04
0.860713      	6.055926e-04
0.861804      	6.055926e-04
0.862896      	6.055926e-04
0.863987      	6.055926e-04
0.865078      	6.055926e-04
0.86617       	6.055926e-04
0.867261      	6.055926e-04
0.868352      	6.055926e-04
0.869482      	6.055926e-04
0.870613      	6.055926e-04
0.871743      	6.055926e-04
0.87292       	6.055926e-04
0.874098      	6.055926e-04
0.875275      	6.055926e-04
0.876452      	6.055926e-04
0.87763       	6.055926e-04
0.878873      	6.055926e-04
0.880115      	6.055926e-04
0.881358      	6.055926e-04
0.882601      	6.055926e-04
0.883939      	6.055926e-04
0.885278      	6.055926e-04
0.886616      	6.055926e-04
0.887955      	6.055926e-04
0.889293      	6.055925e-04
0.890631      	6.055925e-04
0.89197       	6.055925e-04
0.893308      	6.055925e-04
0.894646      	6.055925e-04
0.895985      	6.055925e-04
0.897323      	6.055924e-04
0.898662      	6.055924e-04
0.9           	6.055922e-04
0.901429      	6.055918e-04
0.902741      	6.055913e-04
0.904019      	6.055903e-04
0.905229      	6.055888e-04
0.906439      	6.055864e-04
0.907649      	6.055825e-04
0.908859      	6.055762e-04
0.910069      	6.055674e-04
0.911279      	6.055557e-04
0.912528      	6.055401e-04
0.913777      	6.055209e-04
0.915026      	6.054988e-04
0.916275      	6.054752e-04
0.917572      	6.054511e-04
0.918869      	6.054283e-04
0.920115      	6.054082e-04
0.92136       	6.053898e-04
0.922605      	6.053732e-04
0.92385       	6.053588e-04
0.925095      	6.053463e-04
0.926341      	6.053353e-04
0.927586      	6.053256e-04
0.928831      	6.053169e-04
0.930007      	6.053095e-04
0.931183      	6.053025e-04
0.932359      	6.052959e-04
0.933535      	6.052895e-04
0.934711      	6.052834e-04
0.935887      	6.052774e-04
0.937063      	6.052715e-04
0.93824       	6.052654e-04
0.939416      	6.052591e-04
0.940592      	6.052524e-04
0.941768      	6.052455e-04
0.942944      	6.052385e-04
0.94412       	6.052314e-04
0.945296      	6.052242e-04
0.946472      	6.052169e-04
0.947648      	6.052093e-04
0.948824      	6.052012e-04
0.95          	6.051925e-04
0.951282      	6.051825e-04
0.952599      	6.051709e-04
0.953953      	6.051566e-04
0.955307      	6.051383e-04
0.956662      	6.051156e-04
0.958016      	6.050902e-04
0.95937       	6.050626e-04
0.960771      	6.050310e-04
0.962172      	6.049981e-04
0.963573      	6.049626e-04
0.96503       	6.049242e-04
0.966488      	6.048851e-04
0.968011      	6.048459e-04
0.969534      	6.048074e-04
0.971057      	6.047711e-04
0.972581      	6.047380e-04
0.974104      	6.047080e-04
0.975627      	6.046807e-04
0.977151      	6.046557e-04
0.978674      	6.046326e-04
0.980197      	6.046121e-04
0.98172       	6.045940e-04
0.983244      	6.045776e-04
0.984767      	6.045621e-04
0.98629       	6.045444e-04
0.987814      	6.045211e-04
0.989337      	6.044914e-04
0.99086       	6.044562e-04
0.992384      	6.044167e-04
0.993907      	6.043737e-04
0.99543       	6.043284e-04
0.996953      	6.042819e-04
0.997969      	6.042504e-04
0.998984      	6.042191e-04
1             	6.041883e-04
