/*--------------------------------*- C++ -*----------------------------------*\
  =========                 |
  \\      /  F ield         | OpenFOAM: The Open Source CFD Toolbox
   \\    /   O peration     | Website:  https://openfoam.org
    \\  /    A nd           | Version:  7
     \\/     M anipulation  |
\*---------------------------------------------------------------------------*/
FoamFile
{
    version     2.0;
    format      ascii;
    class       volScalarField;
    location    "0.98";
    object      T;
}
// * * * * * * * * * * * * * * * * * * * * * * * * * * * * * * * * * * * * * //

dimensions      [0 0 0 1 0 0 0];

internalField   nonuniform List<scalar> 
46572
(
-9.21183e-43
-2.3042e-41
8.48966e-40
7.93236e-40
-1.03081e-38
-2.66757e-38
-1.64771e-37
1.02874e-37
-6.03917e-37
2.1185e-36
-8.02123e-37
5.98413e-36
6.44721e-37
3.56967e-36
3.38623e-36
-1.46415e-35
7.17458e-36
-4.12084e-35
6.50198e-36
-6.56447e-35
-1.61179e-35
-9.10422e-35
-1.08413e-34
-8.8132e-35
-2.40593e-34
2.56368e-34
3.44455e-34
1.84407e-33
5.35935e-33
6.06713e-33
2.57998e-32
1.21914e-32
8.2437e-32
1.79401e-32
2.56661e-31
1.25973e-33
6.75752e-31
-3.08677e-31
1.22813e-30
-8.70759e-31
1.6793e-30
-1.57845e-30
1.92632e-30
-2.00483e-30
1.91363e-30
-2.02287e-30
1.85329e-30
-1.87181e-30
1.8229e-30
-1.7571e-30
1.87639e-30
-1.78127e-30
2.03688e-30
-1.85481e-30
2.24387e-30
-2.13497e-30
2.36809e-30
-2.38383e-30
2.23732e-30
-2.34503e-30
2.01659e-30
-2.06593e-30
1.82544e-30
-1.71332e-30
1.72893e-30
-1.69912e-30
1.66842e-30
-1.81422e-30
1.53909e-30
-1.68939e-30
1.3313e-30
-1.48123e-30
1.0722e-30
-1.32812e-30
7.32564e-31
-8.38313e-31
4.35023e-31
-4.62285e-31
2.1551e-31
-2.11467e-31
7.32384e-32
-3.57894e-32
1.69652e-32
1.11388e-32
8.54255e-34
1.18923e-32
-4.36422e-34
2.16844e-33
-1.02789e-34
-3.32055e-34
-1.99385e-35
-2.04201e-34
-1.91415e-37
-5.09746e-35
1.05303e-36
-5.17914e-36
5.61181e-38
1.2251e-36
-1.13206e-38
1.03612e-37
0
-1.23767e-38
0
2.45603e-44
0
1.68316e-45
0
0
0
0
0
0
0
0
0
0
0
0
0
0
0
0
0
0
0
0
0
0
0
0
0
0
0
0
0
0
0
0
0
0
0
0
0
0
0
0
0
0
0
0
0
0
0
0
0
0
0
0
0
0
0
0
0
0
0
0
0
0
0
0
0
0
0
0
0
0
0
0
0
0
0
0
0
0
0
0
0
0
0
0
0
0
0
0
0
0
0
0
0
0
0
0
0
0
0
0
0
0
0
0
0
0
0
0
0
0
0
0
0
0
0
0
0
0
0
0
0
0
0
0
0
0
0
0
0
0
0
0
0
-1.48284e-135
5.04351e-138
5.62355e-132
7.14848e-132
3.22316e-131
3.64592e-131
5.35602e-129
8.19151e-129
1.01819e-120
-5.16813e-121
1.35196e-115
1.69392e-115
1.61237e-114
1.87026e-114
1.88618e-111
-2.87836e-112
-2.99258e-108
-3.85871e-108
-1.58463e-107
-2.0435e-107
-3.27027e-106
1.4862e-105
-3.96301e-106
6.75998e-106
-3.94022e-106
2.16228e-106
-2.37987e-104
2.96194e-105
1.02312e-102
2.91825e-102
3.43714e-102
6.46309e-102
3.89351e-102
8.50113e-102
-4.43133e-100
1.41061e-99
-1.97263e-98
-1.56313e-98
-2.22033e-97
-2.19189e-97
-1.09208e-95
-5.12658e-96
5.95389e-95
-2.04801e-94
5.30432e-94
5.49498e-94
-6.04064e-93
2.07876e-92
-3.31324e-91
-3.00071e-91
-3.03771e-91
-3.09913e-91
-3.38524e-91
3.10063e-91
-1.37786e-90
1.72514e-90
-4.89595e-89
-4.07984e-89
-3.1615e-89
-2.14854e-89
-7.2895e-89
1.65123e-88
-2.69483e-88
5.05305e-90
-3.39666e-88
-1.72705e-88
-3.0803e-88
-1.03253e-88
-3.25416e-88
1.31016e-88
-1.18964e-87
-1.00501e-87
-2.04377e-87
-1.25001e-87
-1.49842e-87
-8.59995e-88
-1.48245e-87
-4.19074e-88
-1.81631e-86
-9.6653e-87
-1.44822e-86
-1.11275e-88
-1.30765e-86
4.24522e-87
-1.23845e-86
7.69437e-87
-1.09279e-86
6.14384e-87
-3.49212e-86
4.23689e-86
-4.11237e-86
4.59604e-86
-3.57103e-85
3.65189e-86
-7.33498e-85
-5.43149e-85
-5.04679e-85
-3.32614e-85
-5.07358e-85
2.6282e-85
-9.38266e-85
-9.09138e-86
-1.38607e-84
1.05006e-85
-2.25681e-84
6.04334e-85
-2.69378e-84
1.87284e-84
-9.52461e-84
-6.21729e-84
-6.6443e-84
-4.07656e-84
-5.31375e-84
-2.99477e-85
-6.80834e-84
-3.75645e-84
-5.06574e-84
-2.42601e-84
-4.56091e-84
7.72898e-85
-1.54971e-83
-1.17777e-83
-1.05717e-83
-7.42415e-84
-8.88638e-84
-1.55316e-85
-1.14942e-83
-2.4999e-84
-1.14191e-83
-5.82348e-84
-9.18314e-84
-3.78258e-84
-8.08571e-84
-6.22646e-85
-1.43673e-83
-1.19022e-83
-1.21637e-83
-3.24534e-85
-1.1994e-83
-4.20795e-84
-8.79511e-84
-3.01916e-84
-6.52132e-84
-2.57648e-84
-5.22589e-84
-5.46463e-85
-6.19892e-84
-2.05254e-84
-1.11024e-83
-8.30085e-84
-1.36816e-83
-9.42628e-84
-9.80961e-84
-6.57136e-84
-6.97585e-84
-4.26194e-84
-8.50043e-84
-2.95238e-84
-1.02663e-83
-7.54642e-84
-7.0428e-84
-4.75498e-84
-5.34265e-84
-2.08341e-84
-4.96442e-84
-2.18389e-84
-3.80299e-84
-1.4689e-84
-2.87053e-84
-1.17125e-84
-2.28216e-84
-2.67876e-85
-2.73974e-84
-1.29458e-84
-3.44071e-84
-4.97556e-85
-2.6479e-84
-4.73604e-85
-2.01161e-84
-4.20798e-85
-1.52924e-84
-3.53794e-85
-1.99248e-84
-2.51758e-85
-2.41309e-84
-1.41325e-84
-1.68519e-84
-8.86989e-85
-1.29265e-84
-3.80603e-85
-1.17994e-84
-3.85031e-85
-1.01355e-84
-4.75855e-85
-7.87901e-85
-3.17256e-85
-6.67843e-85
1.96609e-86
-5.75765e-85
-5.71159e-86
-6.21808e-85
1.50158e-85
-5.40832e-85
9.03496e-86
-4.94994e-85
-9.6093e-86
-3.96473e-85
-2.34192e-86
-3.48124e-85
1.76635e-85
-5.56864e-85
3.43907e-85
-5.75613e-85
7.41331e-85
-8.46929e-85
1.27679e-84
-1.26419e-84
1.7388e-84
-1.49754e-84
1.68329e-84
-1.60727e-84
1.73869e-84
-1.83554e-84
1.87775e-84
-1.96782e-84
1.94661e-84
-2.18396e-84
1.935e-84
-2.25018e-84
1.86792e-84
-2.09554e-84
1.41374e-84
-1.99858e-84
1.33682e-84
-1.87267e-84
1.32517e-84
-1.79e-84
1.39864e-84
-2.00324e-84
1.94054e-84
-2.15331e-84
1.56479e-84
-2.22827e-84
1.56939e-84
-2.1156e-84
1.46967e-84
-2.1768e-84
1.46319e-84
-2.09217e-84
1.25359e-84
-2.03444e-84
1.57452e-84
-1.99397e-84
1.21392e-84
-1.82984e-84
1.30587e-84
-1.72014e-84
1.35904e-84
-1.65278e-84
1.26022e-84
-1.53815e-84
7.23309e-85
-1.38176e-84
7.52198e-85
-1.1092e-84
3.06265e-85
-1.01664e-84
5.64476e-86
-3.15532e-85
-6.54919e-85
-1.12091e-85
-4.89575e-85
8.62326e-85
-1.34934e-84
1.73332e-84
-8.41344e-85
1.64843e-84
-1.75782e-84
2.36606e-84
-2.97264e-84
3.11219e-84
-3.25361e-84
3.38901e-84
-2.95304e-84
3.64728e-84
-3.33557e-84
3.94888e-84
-2.20043e-84
3.94032e-84
-1.57309e-84
3.56839e-84
-1.63101e-84
3.37659e-84
-1.92025e-84
3.10673e-84
-1.40952e-84
2.78922e-84
-1.04089e-84
2.45279e-84
-9.83587e-85
1.82432e-84
-8.80779e-85
1.59279e-84
-9.30273e-85
1.26679e-84
-1.85579e-85
8.73085e-85
-1.45509e-85
5.80891e-85
-2.05826e-85
4.05917e-85
1.28736e-86
1.37012e-85
2.65888e-85
-2.13189e-85
-1.79864e-85
-1.25479e-84
1.92856e-85
-2.24338e-83
2.18281e-83
-2.46366e-82
-1.05699e-81
3.37646e-81
-2.92663e-81
-2.26453e-79
1.61089e-79
4.10274e-79
1.16997e-78
-5.98609e-78
1.72876e-77
-4.65017e-76
1.59835e-77
3.41073e-74
1.00475e-74
-1.66234e-73
-7.77309e-73
-5.7379e-72
1.61248e-71
1.6524e-70
2.43831e-70
-2.36464e-70
5.58993e-70
6.0784e-68
2.19694e-68
-2.76538e-67
-3.00372e-68
1.28926e-65
-2.23561e-66
2.18338e-64
3.31581e-65
6.23471e-63
3.40449e-63
1.91464e-62
-2.72561e-62
3.4682e-61
-1.54908e-61
-1.04842e-59
-0.00110798
-0.000345217
-2.76208e-05
-8.07031e-07
3.94943e-08
3.93207e-09
9.63921e-11
-7.79753e-13
-7.72309e-14
-1.39898e-15
-6.59616e-18
-2.8704e-20
-9.58345e-22
8.48123e-23
4.7749e-25
-1.7187e-26
-1.0348e-28
2.90132e-31
2.77172e-33
2.09377e-36
-9.43738e-38
1.53407e-40
3.59582e-42
-3.23593e-44
8.87279e-47
3.31089e-49
-6.35401e-51
7.76476e-53
-7.72401e-55
4.92019e-57
-0.00110773
1.84823e-12
-2.42761e-12
7.91828e-12
4.17215e-11
3.63356e-11
-4.98613e-11
1.11999e-10
7.42873e-10
4.45726e-10
-4.0894e-09
-1.07171e-08
-1.48265e-10
4.61234e-08
5.90912e-08
-2.74274e-07
-1.55164e-06
-4.10414e-06
-5.96504e-06
1.12358e-06
3.81996e-05
0.000152875
0.000427089
0.000986819
0.00203113
0.0037903
0.00658054
0.0106744
0.0164919
0.0243132
0.0340489
0.0457019
0.0603135
0.0764246
0.0939588
0.11181
0.129471
0.147703
0.163112
0.174494
0.183397
0.186678
0.185026
0.179339
0.165116
0.151724
0.132844
0.111286
0.0882478
0.0635272
0.0393422
0.0162556
-0.00447382
-0.0241228
-0.0408682
-0.0526347
-0.0636816
-0.0703828
-0.0738089
-0.0747845
-0.0709204
-0.0697416
-0.0658239
-0.0597584
-0.0542147
-0.0486067
-0.0433745
-0.0380514
-0.0313755
-0.0270496
-0.0224601
-0.0181834
-0.0147617
-0.0120212
-0.00948762
-0.00740285
-0.00562614
-0.00444734
-0.00340736
-0.00267198
-0.00161233
-0.00109859
3.27622e-14
-1.33758e-13
-1.17754e-13
-3.27927e-13
-4.37277e-14
-6.87983e-13
-3.09456e-13
3.09685e-14
-1.1276e-12
6.70039e-13
2.67992e-12
9.79976e-13
6.95029e-14
-3.63881e-14
6.70532e-14
-2.48737e-14
-4.27051e-14
4.66279e-14
4.53702e-14
-5.84589e-14
5.20337e-14
-1.40296e-14
-2.90078e-13
2.26572e-13
-7.98572e-14
-6.0219e-14
2.13936e-13
-1.8987e-13
-3.13927e-13
3.82879e-13
1.2451e-13
2.2088e-13
3.31906e-13
5.08771e-14
1.35896e-13
-2.45362e-13
2.90957e-14
-1.20937e-13
-2.65595e-13
2.05762e-13
2.14318e-13
-1.9124e-13
-3.67239e-13
-1.33803e-12
-1.699e-13
2.15144e-13
-7.89431e-13
-7.5601e-13
-6.59036e-13
1.76483e-12
6.3407e-13
4.68621e-13
2.12495e-12
1.3891e-12
-3.75973e-14
-1.18557e-12
1.08011e-12
-8.5489e-13
-2.0195e-12
-2.03485e-12
-2.63629e-12
2.12634e-12
-1.76185e-12
3.5908e-12
1.24268e-12
-8.56443e-14
-3.04571e-12
-6.05563e-12
-3.06542e-12
-1.12127e-11
-7.88773e-12
-1.27707e-11
-1.00369e-11
-1.62276e-11
-3.16728e-12
-3.10894e-11
-1.47074e-13
-6.97509e-11
-5.1245e-12
-1.23297e-10
-4.38481e-11
-1.81792e-10
-1.17698e-10
-2.0219e-10
-1.88387e-10
-8.16179e-11
-2.16641e-10
2.23313e-10
-1.32841e-10
6.78045e-10
1.16238e-10
1.11195e-09
4.27722e-10
1.04805e-09
5.06892e-10
6.15175e-11
-7.39573e-11
-2.17461e-09
-1.96733e-09
-5.29761e-09
-5.55609e-09
-8.05e-09
-1.03878e-08
-7.15419e-09
-1.49797e-08
1.90144e-09
-1.70152e-08
2.42786e-08
-1.17909e-08
6.1962e-08
3.77057e-09
1.12401e-07
2.97953e-08
1.60459e-07
6.19948e-08
1.84981e-07
7.4635e-08
1.30654e-07
3.58245e-08
-5.61122e-08
-1.20218e-07
-4.28142e-07
-4.66952e-07
-9.99977e-07
-1.10126e-06
-1.70597e-06
-2.11384e-06
-2.29378e-06
-3.51921e-06
-2.19713e-06
-5.17878e-06
-3.77353e-07
-6.85988e-06
4.95494e-06
-7.75399e-06
1.62706e-05
-6.64202e-06
3.76143e-05
-2.07294e-06
7.42385e-05
9.8957e-06
0.000134841
3.09799e-05
0.000226419
7.16148e-05
0.000363457
0.000132502
0.000564032
0.000229996
0.00083805
0.000372237
0.00121242
0.000565125
0.0017279
0.000837884
0.00238662
0.00121521
0.00322887
0.00168449
0.00431982
0.00230766
0.00563089
0.00308204
0.00723555
0.00400593
0.00922628
0.00516306
0.0114447
0.00655988
0.0142364
0.00818729
0.0175078
0.0102593
0.0211094
0.0125349
0.0252892
0.0150279
0.0297176
0.0179233
0.0350695
0.021091
0.0407049
0.0247908
0.0467043
0.0284742
0.0536734
0.0327613
0.0604488
0.037091
0.0676682
0.0413352
0.0758236
0.0460897
0.0828998
0.0508027
0.091568
0.0557018
0.100495
0.0616621
0.108571
0.0668178
0.116973
0.071349
0.124109
0.0759607
0.132536
0.0799613
0.139309
0.0843775
0.145325
0.0870557
0.152559
0.0907268
0.156707
0.0925474
0.160162
0.0932162
0.164882
0.0947232
0.167285
0.0956416
0.167657
0.093872
0.168624
0.0930211
0.167235
0.090632
0.165544
0.0866508
0.161238
0.0823979
0.158038
0.0771443
0.152364
0.0721242
0.145485
0.0646093
0.139439
0.058594
0.130219
0.0498846
0.120566
0.0405895
0.11186
0.0326122
0.101608
0.0241064
0.0904648
0.0138004
0.0800204
0.00516677
0.0683595
-0.0051535
0.0568386
-0.0153221
0.0456012
-0.0243611
0.0340266
-0.0338275
0.0237049
-0.0427727
0.0126949
-0.0505751
0.00194692
-0.0585844
-0.00786204
-0.0664876
-0.0168062
-0.0733508
-0.025319
-0.0800754
-0.0339394
-0.0856221
-0.0402574
-0.0908546
-0.0486884
-0.0948131
-0.0532118
-0.0985621
-0.0576817
-0.101124
-0.0636309
-0.103858
-0.0672584
-0.105545
-0.0689805
-0.106017
-0.0724011
-0.106378
-0.0741624
-0.106045
-0.0752698
-0.105184
-0.0747866
-0.103496
-0.0749863
-0.101947
-0.0747171
-0.099556
-0.0727669
-0.096509
-0.0729312
-0.0939177
-0.0698155
-0.0901367
-0.0670657
-0.0861136
-0.0658031
-0.0829062
-0.0635981
-0.0794115
-0.0598574
-0.0750758
-0.057809
-0.0713575
-0.0547986
-0.0672817
-0.0517902
-0.0631932
-0.0483516
-0.0589569
-0.045392
-0.0552914
-0.0425421
-0.0513991
-0.0390791
-0.0471649
-0.0358491
-0.0431579
-0.033351
-0.0400568
-0.0308664
-0.03698
-0.0288216
-0.0342855
-0.0265989
-0.0315223
-0.0239099
-0.0285503
-0.0222424
-0.0261258
-0.019915
-0.0234745
-0.0177769
-0.0210735
-0.0162574
-0.0190618
-0.014297
-0.0168837
-0.0129202
-0.0152381
-0.0117719
-0.0138165
-0.0105257
-0.0123638
-0.00940714
-0.0110186
-0.00829603
-0.00977025
-0.00741981
-0.00871503
-0.00660455
-0.00771084
-0.00573888
-0.00675143
-0.00515493
-0.00600154
-0.00449209
-0.00525827
-0.0039563
-0.00461003
-0.00355466
-0.00406956
-0.00308497
-0.00350846
-0.00256826
-0.00299168
-0.00220782
-0.00269168
-0.00231903
-0.00175681
-0.00246536
-8.49879e-17
9.11049e-16
8.23641e-14
2.72264e-12
2.54503e-11
-2.28188e-10
9.81838e-09
6.06915e-07
1.79597e-05
3.12837e-06
0.00021318
0.000149526
3.67789e-05
-2.44752e-39
-1.88686e-33
-6.07295e-30
-6.78945e-28
3.92624e-26
-1.26114e-24
-5.1967e-24
-7.01253e-24
-1.90469e-23
-3.19907e-23
5.84455e-24
1.1361e-23
1.77604e-23
3.33811e-23
3.96635e-23
2.21982e-23
-5.42272e-24
2.66838e-24
-1.53823e-23
-3.53873e-25
-4.12424e-23
-8.55395e-23
-8.10266e-23
-4.02414e-23
4.76536e-24
-1.23855e-22
-1.16879e-22
-3.42049e-22
-6.16337e-22
-5.79419e-22
-6.33128e-22
-6.35324e-22
-3.84357e-22
-2.83946e-22
-3.65836e-22
-1.0421e-21
-1.45921e-21
-1.84584e-21
-1.60048e-21
-1.30222e-21
-3.09024e-22
4.20699e-22
1.14849e-21
1.21888e-21
4.56941e-22
-1.06979e-21
-2.1459e-21
-3.29269e-21
-3.95089e-21
-3.66909e-21
-2.82517e-21
-1.60514e-21
-2.03918e-22
9.32378e-22
1.70657e-21
1.98792e-21
2.25765e-21
1.87081e-21
1.67948e-21
1.33297e-21
7.90659e-22
4.94462e-22
2.35191e-22
4.05645e-23
-6.84191e-23
-8.80872e-23
-1.21903e-22
-1.2457e-22
-8.72999e-23
-6.70013e-23
-3.99271e-23
-2.32966e-23
-1.63256e-23
-1.14272e-23
-1.05105e-23
-1.14575e-23
-1.14671e-23
-1.05908e-23
-1.31697e-23
-1.28852e-23
-1.10023e-23
-5.31552e-24
-5.60375e-24
-3.66656e-24
-1.76008e-24
-1.16348e-24
-8.61724e-26
5.80312e-25
9.7619e-25
8.55576e-25
1.26232e-24
8.74154e-25
8.54763e-25
7.23913e-25
6.26682e-25
4.27782e-25
1.89992e-24
-7.57873e-23
8.29273e-20
1.98579e-19
-1.35343e-59
5.73725e-06
4.54265e-06
0.000209668
0.000118075
-4.04786e-05
-9.2211e-07
5.48465e-08
-1.58441e-08
-7.29009e-10
-6.59757e-12
3.75226e-13
1.22244e-14
1.23102e-16
6.26357e-20
1.27518e-20
-2.70838e-22
-1.0712e-23
7.48535e-26
1.69564e-27
2.01491e-30
-3.80084e-32
-1.26034e-34
5.20835e-37
6.25459e-39
-6.30455e-41
1.48117e-43
1.22406e-45
-1.2467e-47
6.83524e-50
-5.08789e-52
2.80655e-54
-5.08793e-57
-1.82675e-14
-3.40777e-59
1.43264e-12
-1.83704e-12
2.73403e-11
5.53648e-11
8.54613e-12
-4.62507e-11
3.90838e-10
8.53525e-10
-1.08941e-09
-7.93648e-09
-9.25241e-09
1.88579e-08
6.88913e-08
-3.16623e-08
-7.58903e-07
-2.69542e-06
-5.42813e-06
-4.57643e-06
1.37186e-05
8.21883e-05
0.000261626
0.000658525
0.00143408
0.00278842
0.00499048
0.00847267
0.0132692
0.019934
0.0289366
0.0396962
0.0530289
0.0678932
0.0842594
0.103721
0.12074
0.138882
0.154366
0.167178
0.179831
0.183559
0.184007
0.181703
0.173114
0.159777
0.143547
0.121879
0.100663
0.0758139
0.0510992
0.0276652
0.00526142
-0.0144828
-0.0318069
-0.045683
-0.0591177
-0.065138
-0.0702728
-0.0734262
-0.0727465
-0.0706864
-0.0683539
-0.0616268
-0.058466
-0.0515511
-0.045933
-0.0398362
-0.0338937
-0.0290683
-0.0241345
-0.0197784
-0.0167126
-0.0131798
-0.0104067
-0.00828157
-0.00634354
-0.00501734
-0.00379358
-0.00297847
-0.00264872
9.47069e-14
3.12347e-14
1.71597e-13
1.47916e-13
2.22778e-13
4.23196e-13
-3.71796e-15
9.21443e-13
9.40997e-13
-1.00456e-12
9.42814e-13
9.51698e-14
-4.6193e-14
2.55911e-14
1.64479e-14
6.41222e-14
-1.2128e-13
1.092e-13
-4.72202e-14
3.83439e-14
-2.52619e-12
-2.96833e-14
-8.95391e-15
-5.36042e-13
-1.12908e-11
4.17849e-12
-3.79157e-10
-7.86705e-08
-3.73153e-06
-4.93677e-05
1.0466e-13
-4.12355e-36
-1.19837e-31
-8.62611e-29
3.05898e-29
3.64881e-26
3.74466e-24
4.14758e-24
1.27034e-23
3.52657e-23
1.4369e-23
-1.50513e-23
-1.738e-23
-2.41342e-23
-5.59843e-23
-3.37542e-23
8.68797e-24
-9.35486e-24
-1.4134e-23
-1.46545e-23
2.66e-23
-5.61049e-23
-1.21588e-22
-1.29869e-22
-2.3064e-22
1.31654e-22
1.63356e-23
-1.36691e-22
-7.10702e-23
-7.79043e-22
-1.248e-21
-8.136e-22
-6.13071e-22
-4.62217e-22
-5.23437e-22
-7.84716e-22
-1.33661e-21
-2.07679e-21
-2.40117e-21
-1.50399e-21
-8.6142e-22
2.84893e-22
1.15404e-21
1.28114e-21
4.95559e-22
-6.2838e-22
-1.98861e-21
-3.01476e-21
-4.04297e-21
-4.26634e-21
-3.59637e-21
-2.41771e-21
-3.84026e-22
1.54772e-22
1.81666e-21
1.7707e-21
2.34256e-21
2.34085e-21
1.94836e-21
1.50244e-21
1.14383e-21
6.51348e-22
3.7363e-22
1.37664e-22
8.55825e-24
-1.18822e-22
-1.11349e-22
-1.17417e-22
-1.18343e-22
-7.3143e-23
-5.32254e-23
-3.11075e-23
-1.84976e-23
-1.19095e-23
-8.1441e-24
-7.31268e-24
-1.2819e-23
-7.61513e-24
-1.07132e-23
-1.14696e-23
-1.01441e-23
-1.19397e-23
-6.0836e-24
-3.93568e-24
-3.36192e-24
-2.15971e-24
-1.01063e-24
1.14944e-25
5.60116e-25
1.55429e-24
1.34807e-24
1.21294e-24
9.20741e-25
7.98185e-25
6.79639e-25
5.04049e-25
2.88849e-25
-3.03432e-24
-5.89796e-21
2.56357e-18
-4.84769e-59
2.61497e-41
-1.01621e-09
-1.52811e-12
7.30587e-13
1.71344e-14
1.46102e-16
-2.45105e-19
2.31229e-20
-6.29158e-22
-1.89899e-23
1.30707e-25
2.73643e-27
3.56645e-30
-5.65822e-32
-1.94475e-34
7.38809e-37
1.0413e-38
-1.03695e-40
2.4043e-43
2.03325e-45
-2.11249e-47
1.24794e-49
-9.57393e-52
5.5892e-54
-1.19857e-56
-7.33015e-59
-9.67409e-12
-3.14125e-12
2.42929e-11
-2.14565e-11
-8.91407e-11
1.46366e-10
9.90017e-10
4.39563e-10
-4.39096e-09
-9.63318e-09
7.04562e-09
6.47381e-08
7.26776e-08
-3.43491e-07
-1.97606e-06
-5.6482e-06
-1.06051e-05
-1.13685e-05
8.27644e-06
8.36844e-05
0.000275127
0.000677418
0.00144805
0.00274005
0.00483258
0.00774755
0.0119611
0.0175874
0.0241585
0.0324857
0.0422695
0.0525367
0.0648524
0.0748666
0.0862817
0.0954953
0.102013
0.108604
0.107067
0.103341
0.097499
0.0860154
0.0709213
0.0556009
0.0344026
0.016778
-0.00566534
-0.0267599
-0.0447456
-0.0629661
-0.0782651
-0.0910826
-0.10042
-0.107451
-0.110203
-0.109971
-0.108629
-0.104061
-0.0975828
-0.0915681
-0.0824158
-0.0750827
-0.0655797
-0.0582113
-0.0502919
-0.0426416
-0.0360346
-0.0299033
-0.0244541
-0.0202828
-0.0160048
-0.0127332
-0.0101004
-0.00776304
-0.00606976
-0.00464313
-0.00361327
-0.00297619
6.10334e-14
9.96899e-14
8.21202e-14
2.00279e-13
-4.76673e-13
-3.73737e-13
2.87106e-13
-6.06287e-13
3.25875e-14
-1.71466e-14
3.89285e-15
2.75339e-15
-5.6614e-14
4.61004e-14
-6.13681e-15
-1.82244e-14
2.07527e-14
-9.09743e-15
-1.04237e-13
6.88008e-11
-3.50762e-10
8.92562e-09
7.36589e-07
2.90579e-05
1.5122e-37
5.13292e-29
1.38036e-27
-1.5523e-25
7.43203e-25
2.38672e-23
5.00738e-23
4.54117e-23
-1.80448e-23
-1.0992e-23
3.51824e-23
4.15963e-23
-3.54428e-23
3.05821e-23
-8.19054e-24
-2.1276e-23
1.05145e-23
2.00643e-23
1.30044e-23
2.55146e-23
1.63806e-22
1.04964e-22
4.57831e-23
3.22707e-22
5.92924e-22
5.78547e-22
6.80894e-22
5.07034e-22
8.73604e-23
8.2413e-22
3.28383e-22
1.84873e-22
6.52517e-22
1.18667e-21
1.00805e-21
3.39128e-22
-7.06929e-22
-9.20072e-22
-2.09308e-21
-1.51822e-21
-7.02295e-22
1.02411e-21
2.86608e-21
3.81809e-21
3.70296e-21
2.73787e-21
6.12889e-22
-1.56433e-21
-3.56972e-21
-4.4786e-21
-4.26575e-21
-5.20814e-21
-2.90905e-21
-2.77384e-21
-1.36313e-21
-3.42408e-22
8.04314e-23
3.68378e-22
6.53363e-22
5.41531e-22
5.62086e-22
4.58928e-22
3.85891e-22
1.49936e-22
1.22982e-22
5.84631e-23
-6.2384e-24
-2.19571e-23
-3.73321e-23
-2.37519e-23
-9.85029e-24
-1.4033e-26
1.24008e-23
1.58583e-23
1.60251e-23
2.448e-23
1.55841e-23
1.16318e-23
1.10582e-23
1.53321e-24
5.66919e-24
4.81205e-24
7.21353e-26
6.86477e-26
-7.34264e-25
-1.61771e-24
-2.93767e-24
-1.61611e-24
-2.99451e-24
-2.09454e-24
-5.0458e-25
-8.84793e-25
-1.39223e-25
-1.53232e-25
3.73832e-26
-8.97952e-24
7.45634e-22
-6.04396e-19
-1.2615e-13
-1.85518e-15
-4.96802e-18
-5.89039e-20
-9.38284e-22
1.58538e-22
7.00002e-25
-2.76578e-26
-1.6689e-28
4.01925e-31
3.89023e-33
5.13746e-36
-1.49903e-37
2.35154e-40
6.24015e-42
-5.16489e-44
1.36196e-46
5.89883e-49
-1.07646e-50
1.41474e-52
-1.47694e-54
1.07287e-56
-2.45182e-12
-4.36203e-12
1.69797e-11
2.39525e-11
-6.30202e-11
-4.42899e-11
5.30406e-10
1.13117e-09
-1.40678e-09
-7.88689e-09
-6.23264e-09
3.17034e-08
8.90737e-08
-4.44374e-08
-9.5759e-07
-3.52142e-06
-8.14648e-06
-1.20407e-05
-5.82993e-06
3.61999e-05
0.000158878
0.000439647
0.00101188
0.00201187
0.00366093
0.00616977
0.00971338
0.0145786
0.0208366
0.0281258
0.0375265
0.0475768
0.0585413
0.0700614
0.0804284
0.0917769
0.0997622
0.105269
0.108941
0.106644
0.101361
0.0934887
0.0777143
0.0640887
0.0460278
0.0256724
0.00588832
-0.0151071
-0.035733
-0.0543379
-0.0710125
-0.0849285
-0.0959894
-0.104178
-0.109525
-0.110516
-0.109518
-0.107056
-0.100146
-0.0947542
-0.0871872
-0.0785702
-0.0700933
-0.061801
-0.0546203
-0.0469136
-0.0390682
-0.0331653
-0.0273665
-0.0223212
-0.0179335
-0.0144925
-0.0114161
-0.00893081
-0.00683035
-0.0053576
-0.0041177
-0.00321734
-1.26594e-13
7.56091e-15
-2.10886e-13
-2.88558e-14
4.87257e-14
1.41482e-13
1.2173e-12
-8.72502e-13
-1.34845e-12
3.89835e-14
-4.34576e-14
3.42598e-14
2.11648e-14
-8.34364e-14
6.48999e-14
-4.02421e-14
1.86521e-14
-9.20072e-15
-8.66267e-13
-2.31623e-11
-9.17098e-11
6.39258e-10
-8.7093e-08
-5.16634e-06
-0.000121206
1.42979e-30
4.78209e-28
-1.35029e-26
6.48924e-25
-8.96063e-24
-4.3507e-23
-5.45451e-23
-2.75625e-23
2.55748e-23
-1.93074e-23
-5.08961e-23
-1.76856e-23
4.12244e-23
9.59362e-24
1.07596e-23
-1.86489e-23
-2.37035e-23
4.92398e-25
-3.06599e-23
8.68707e-23
1.6317e-22
1.76612e-22
5.05611e-22
1.1159e-23
3.12029e-22
5.34335e-22
9.76085e-23
6.4118e-22
1.50941e-21
6.55265e-22
4.76259e-22
5.96121e-22
1.83636e-21
1.80111e-21
1.16093e-21
8.33305e-22
2.58071e-22
-1.91657e-21
-1.38905e-21
-1.62668e-21
2.75897e-22
2.33005e-21
3.39961e-21
3.80352e-21
3.36201e-21
2.05141e-21
-4.15315e-23
-2.41467e-21
-4.07185e-21
-4.81133e-21
-4.4117e-21
-3.44349e-21
-2.57343e-21
-2.4075e-21
-6.27874e-22
-4.30132e-22
2.89811e-22
6.34882e-22
5.11428e-22
5.33394e-22
4.76609e-22
3.83517e-22
2.12531e-22
1.61049e-22
8.05305e-23
1.45596e-23
-1.87597e-23
-3.65228e-23
-2.19229e-23
-1.94276e-23
-1.1264e-23
-4.27736e-24
7.56693e-24
1.38738e-23
1.26012e-23
1.10038e-23
6.86712e-24
7.99614e-24
4.71324e-24
8.70688e-24
2.38966e-24
4.40749e-25
1.68539e-24
7.38571e-25
5.13349e-25
-1.19732e-24
-1.95324e-24
-2.44136e-24
-1.45633e-24
-4.41452e-27
-7.96746e-25
-6.36095e-26
-1.23957e-25
6.71024e-26
2.4267e-25
2.45587e-23
4.33178e-20
-9.13739e-08
1.1083e-10
6.4336e-09
1.05691e-07
-3.06312e-08
-4.93763e-15
-2.05979e-12
9.22577e-14
-5.43266e-14
6.88942e-16
5.20751e-12
1.36478e-34
3.36416e-32
9.67099e-40
4.24045e-37
-2.49409e-36
-3.03609e-35
-3.65979e-35
1.42728e-34
-9.83749e-35
1.68024e-33
-5.69601e-35
3.46131e-33
2.31598e-34
-1.45346e-34
6.31118e-34
-8.72171e-33
9.26024e-34
-1.62505e-32
1.1374e-33
-1.86983e-32
1.28951e-33
-1.9402e-32
1.3297e-34
-2.95379e-32
-8.33308e-33
-4.81921e-32
-2.95674e-32
4.14944e-32
-5.22376e-32
3.64656e-31
-7.29854e-32
1.23215e-30
2.39395e-31
4.07269e-30
2.57821e-30
6.67084e-30
7.14558e-30
-1.05411e-29
1.26335e-29
-4.52884e-29
1.5812e-29
-7.49291e-29
1.62203e-29
-7.85949e-29
1.52334e-29
-6.65518e-29
1.46592e-29
-6.34137e-29
1.50655e-29
-6.84879e-29
1.57163e-29
-6.92851e-29
1.7519e-29
-7.09135e-29
1.93034e-29
-8.38923e-29
1.92923e-29
-9.34651e-29
1.6871e-29
-8.22465e-29
1.42269e-29
-5.7129e-29
1.3786e-29
-5.24201e-29
1.42708e-29
-5.88039e-29
1.34916e-29
-6.35954e-29
1.21425e-29
-6.23085e-29
1.06135e-29
-5.68239e-29
6.99595e-30
-4.18348e-29
3.93589e-30
-2.06947e-29
1.78068e-30
-6.23076e-30
4.48374e-31
8.29601e-31
2.64688e-32
1.18923e-30
-1.29846e-32
-3.76132e-31
1.28594e-32
-8.96077e-31
1.08314e-32
-4.98105e-31
3.10042e-33
-1.12004e-31
4.05698e-34
-7.57138e-33
-9.03434e-36
1.67121e-33
-1.1755e-35
3.60175e-34
4.41255e-37
-6.92591e-35
9.06298e-38
3.31919e-37
-6.42911e-39
5.39453e-37
-3.61314e-42
-2.23708e-38
6.23558e-45
-5.53698e-41
0
5.70508e-44
0
-3.64334e-48
0
0
0
0
0
0
0
0
0
0
0
0
0
0
0
0
0
0
0
0
0
0
0
0
0
0
0
0
0
0
0
0
0
0
0
0
0
0
0
0
0
0
0
0
0
0
0
0
0
0
0
0
0
0
0
0
0
0
0
0
0
0
0
0
0
0
0
0
0
0
0
0
0
0
0
0
0
0
0
0
0
0
0
0
0
0
0
-2.60567e-15
0
0
0
0
0
0
0
0
0
0
0
0
0
0
0
0
0
0
0
0
0
0
0
0
0
0
0
0
0
0
0
0
0
0
0
0
0
0
-2.17043e-133
3.62799e-136
8.26324e-130
1.03828e-129
1.46564e-129
1.48765e-129
1.32313e-120
8.28658e-127
5.5743e-117
6.82188e-117
2.35483e-113
2.92551e-113
4.36093e-112
-8.87499e-112
2.26862e-109
3.66624e-110
-3.06855e-106
-3.85592e-106
-4.14375e-105
-8.42173e-106
-1.89709e-102
-2.0908e-102
-1.29156e-102
-1.20938e-102
-8.69901e-103
-7.80792e-103
-3.62892e-102
-4.06089e-103
1.709e-100
3.12898e-100
1.97138e-100
7.437e-100
-3.54866e-99
1.498e-99
-4.73008e-97
-3.95842e-97
-3.4446e-96
-3.28073e-96
-2.73984e-95
5.65532e-95
-3.76416e-93
-1.86492e-93
1.08605e-92
4.76763e-93
1.49852e-91
-4.58345e-91
-1.8451e-90
-4.50583e-91
-2.48921e-89
-2.50095e-89
-1.34947e-89
-1.23213e-89
-7.19656e-89
2.29289e-88
-2.55545e-88
3.08374e-89
-2.13864e-87
-1.09565e-87
-2.12487e-87
2.01478e-88
-2.78284e-86
-1.84064e-86
-3.69694e-86
-2.53713e-86
-2.72623e-86
-1.51855e-86
-2.97373e-86
3.54437e-87
-5.29459e-86
-3.44388e-86
-5.08053e-86
-2.96211e-86
-1.22423e-85
-3.99564e-86
-9.71961e-86
3.53872e-87
-1.17081e-85
3.89424e-86
-1.23073e-84
-1.1688e-84
-1.6801e-84
3.04605e-84
-1.96542e-84
2.3472e-84
-2.22219e-84
1.87797e-84
-2.01948e-84
2.0818e-84
-7.17462e-84
1.33952e-83
-8.20472e-84
7.87647e-84
-3.6433e-83
-1.83707e-83
-3.09625e-83
-1.15873e-83
-2.52638e-83
-5.87994e-84
-6.78874e-83
-1.54734e-83
-8.43141e-83
-2.69186e-83
-1.37907e-82
1.84887e-82
-2.37261e-82
4.75464e-84
-3.38074e-82
-1.76742e-82
-4.10558e-82
-2.18695e-82
-3.02954e-82
-1.15147e-82
-4.23422e-82
-9.53844e-84
-3.40646e-82
1.68477e-83
-2.88188e-82
4.9583e-83
-4.25642e-82
-1.69881e-82
-5.61307e-82
-3.5411e-82
-4.17058e-82
-2.22014e-82
-7.0186e-82
-3.45428e-82
-7.70383e-82
-4.92584e-82
-5.59977e-82
-3.15373e-82
-5.08067e-82
-2.11971e-83
-5.83895e-82
-2.77212e-82
-4.41953e-82
-1.38599e-82
-8.81025e-82
-3.94251e-82
-6.67423e-82
-2.67347e-82
-4.91031e-82
-2.39078e-82
-3.55808e-82
-1.25749e-82
-3.7045e-82
-1.91527e-82
-3.46272e-82
-1.69695e-82
-3.54036e-82
-2.01609e-82
-4.52958e-82
-8.59719e-83
-3.33301e-82
-5.49027e-83
-2.63957e-82
-4.35332e-83
-4.10503e-82
-2.10345e-82
-3.0089e-82
-1.39914e-82
-2.21642e-82
-1.12959e-82
-2.34062e-82
-1.0992e-82
-2.05826e-82
-9.55476e-83
-1.61838e-82
-4.94533e-83
-1.20945e-82
-2.9828e-83
-1.2163e-82
-5.91802e-83
-1.03217e-82
1.18573e-83
-1.59991e-82
-6.78714e-83
-1.18287e-82
-3.04868e-83
-8.79579e-83
-2.18751e-83
-6.5949e-83
-1.56199e-83
-8.69274e-83
-4.09482e-83
-6.6603e-83
-2.82593e-83
-4.92362e-83
-2.23823e-83
-4.71256e-83
-2.09456e-83
-4.19524e-83
-2.16814e-83
-3.07816e-83
-1.33521e-83
-2.5245e-83
-4.34595e-84
-2.61451e-83
-8.11475e-84
-2.09103e-83
-5.5813e-84
-2.38838e-83
-1.26855e-83
-1.75963e-83
-4.47067e-84
-1.24689e-83
-2.49342e-84
-9.99889e-84
2.51059e-84
-1.05468e-83
8.29383e-84
-1.44405e-83
1.39864e-83
-1.76128e-83
1.86308e-83
-2.49622e-83
2.74061e-83
-3.32879e-83
3.39828e-83
-3.55163e-83
2.82518e-83
-3.63441e-83
3.14614e-83
-3.96663e-83
3.11763e-83
-4.14496e-83
2.88955e-83
-4.41834e-83
3.05454e-83
-4.5314e-83
3.41613e-83
-3.98139e-83
2.78792e-83
-3.82496e-83
3.25802e-83
-3.71365e-83
3.4089e-83
-3.75181e-83
3.47679e-83
-4.00537e-83
2.96051e-83
-3.88202e-83
2.93032e-83
-3.72086e-83
2.89521e-83
-3.57363e-83
2.69928e-83
-3.1981e-83
2.19499e-83
-3.05686e-83
2.43156e-83
-3.00382e-83
1.80687e-83
-2.33454e-83
1.5516e-83
-2.45863e-83
2.31255e-83
-1.98241e-83
5.74925e-84
-1.093e-83
-5.87616e-85
3.43899e-85
8.94163e-86
2.75991e-84
-2.81457e-84
1.40296e-83
-1.62958e-83
2.38572e-83
-2.92539e-83
3.80638e-83
-2.49779e-83
3.60364e-83
-3.04518e-83
5.63176e-83
-4.22709e-83
6.68507e-83
-6.81532e-83
7.22149e-83
-5.2236e-83
8.23334e-83
-6.28028e-83
8.81465e-83
-6.5028e-83
8.68587e-83
-5.14474e-83
8.162e-83
-4.61201e-83
6.79673e-83
-4.11291e-83
6.01049e-83
-3.66151e-83
5.43784e-83
-3.38667e-83
4.88545e-83
-1.99472e-83
3.41809e-83
-1.96745e-83
2.70791e-83
-1.18589e-83
1.96412e-83
-1.29815e-83
8.54794e-84
-1.1638e-83
5.17333e-84
-2.15761e-84
-7.47108e-84
2.05578e-84
-1.30288e-83
5.5888e-84
-1.46445e-83
6.30454e-84
-1.60242e-83
9.40738e-84
-1.6574e-83
4.47956e-84
-1.48347e-83
6.0851e-84
-1.15993e-83
8.81734e-84
2.75956e-82
-5.69295e-83
-3.35563e-80
3.09869e-81
2.36298e-79
3.03525e-79
3.56514e-78
-4.16089e-78
-6.95811e-78
6.87293e-78
4.8155e-76
4.22017e-76
-3.16574e-76
1.24568e-75
-1.28739e-73
-2.19574e-75
1.2779e-72
4.65811e-72
3.83293e-71
-1.85499e-70
3.42451e-69
9.28602e-69
3.95541e-68
1.32939e-68
1.42123e-67
-1.61044e-67
2.70583e-65
8.09306e-66
-7.34704e-65
-1.11041e-64
4.41815e-63
-1.78839e-63
1.02529e-61
5.82848e-63
1.52725e-61
2.37489e-61
3.32512e-60
-3.88898e-59
-2.28942e-61
7.08884e-11
-6.45291e-07
-3.226e-05
0.000169885
0.000248162
-4.71805e-05
-2.66748e-08
1.02e-07
-5.07879e-08
6.20472e-13
-1.33723e-13
1.31864e-14
9.74744e-17
-5.02789e-19
2.24263e-20
-5.97255e-22
-1.83295e-23
1.06537e-25
2.39493e-27
3.97605e-30
-4.34578e-32
-1.82144e-34
4.55575e-37
1.0502e-38
-9.44348e-41
1.67308e-43
2.16278e-45
-2.0072e-47
1.15889e-49
-8.79928e-52
4.41436e-54
-4.34223e-58
-1.12826e-58
-1.10365e-58
4.798e-13
6.98665e-14
-2.89082e-12
1.43349e-11
1.91937e-11
-6.2725e-11
-5.85724e-11
3.69835e-10
6.064e-10
-1.75889e-09
-6.61392e-09
-3.55957e-09
2.42339e-08
5.18842e-08
-9.95626e-08
-8.47868e-07
-2.67405e-06
-5.41294e-06
-6.31843e-06
2.4551e-06
3.99969e-05
0.000136069
0.000333188
0.000720012
0.0013385
0.00232173
0.00372932
0.0055364
0.00792818
0.0106709
0.0134078
0.0170518
0.019889
0.022552
0.0244184
0.0246094
0.024994
0.022455
0.0178467
0.0125653
0.00383406
-0.00555303
-0.014811
-0.026868
-0.0351718
-0.0442872
-0.0516724
-0.0575821
-0.0601945
-0.0627873
-0.0629011
-0.0598465
-0.0578
-0.0534757
-0.0482646
-0.0430576
-0.0353959
-0.0298215
-0.0247791
-0.0173769
-0.0142354
-0.00997425
-0.00627865
-0.0038855
-0.00168528
-0.00115984
-0.000337198
0.00102927
0.00107971
0.00121747
0.00126448
0.00136211
0.00114218
0.00103967
0.000986104
0.000966105
0.000746649
0.000513344
0.000267928
3.70118e-14
-0.00198933
6.51879e-11
-3.78651e-14
9.79752e-14
1.05508e-13
9.64804e-14
-2.69768e-13
-4.67815e-13
7.05397e-14
-4.648e-13
-5.03659e-14
3.90787e-15
7.23995e-15
3.75632e-13
2.76791e-14
2.12115e-14
-5.4649e-15
4.82634e-16
-1.28802e-14
2.2277e-14
-3.60419e-14
-1.42933e-14
2.16164e-14
-3.17765e-14
1.79246e-14
-6.0705e-15
1.55602e-14
-1.04352e-14
-2.51493e-12
1.06905e-12
-5.73891e-13
2.08301e-12
-7.59829e-10
7.04395e-11
2.91816e-13