/*--------------------------------*- C++ -*----------------------------------*\
  =========                 |
  \\      /  F ield         | OpenFOAM: The Open Source CFD Toolbox
   \\    /   O peration     | Website:  https://openfoam.org
    \\  /    A nd           | Version:  7
     \\/     M anipulation  |
\*---------------------------------------------------------------------------*/
FoamFile
{
    version     2.0;
    format      ascii;
    class       volScalarField;
    location    "0.65";
    object      T;
}
// * * * * * * * * * * * * * * * * * * * * * * * * * * * * * * * * * * * * * //

dimensions      [0 0 0 1 0 0 0];

internalField   nonuniform List<scalar> 
2500
(
0.5
0.0669146
-0.0353169
-0.0277115
-0.00789976
0.00112931
0.00220711
0.000963794
3.88563e-05
-0.000206219
-0.000130475
-2.60559e-05
1.76156e-05
1.74837e-05
6.08561e-06
-9.06067e-07
-2.20758e-06
-1.13468e-06
-1.06132e-07
2.47948e-07
1.87227e-07
4.97343e-08
-2.09658e-08
-2.74065e-08
-1.15553e-08
3.42979e-10
3.35329e-09
1.82788e-09
5.13448e-12
-6.51674e-10
-4.61055e-10
-8.56978e-11
1.26752e-10
1.51667e-10
8.96061e-11
2.56063e-11
-8.47895e-12
-1.63535e-11
-1.19111e-11
-5.49324e-12
-1.28004e-12
4.52125e-13
7.31952e-13
4.94947e-13
2.24458e-13
6.2442e-14
-2.72958e-15
-1.65311e-14
-1.2601e-14
-5.04564e-15
0.933085
0.5
0.14482
-0.0139075
-0.0411718
-0.0230289
-0.00507433
0.00215701
0.00250723
0.00101071
-9.38874e-08
-0.000255324
-0.000158213
-3.18213e-05
2.20242e-05
2.24006e-05
8.1796e-06
-9.48085e-07
-2.86452e-06
-1.56643e-06
-2.00828e-07
3.12802e-07
2.58664e-07
7.8449e-08
-2.2231e-08
-3.56364e-08
-1.55381e-08
9.31512e-10
5.27597e-09
2.90047e-09
-9.62252e-11
-1.32567e-09
-1.10498e-09
-4.42585e-10
3.42038e-11
1.98608e-10
1.69345e-10
8.57879e-11
2.1908e-11
-7.18735e-12
-1.27567e-11
-8.93242e-12
-4.09692e-12
-1.08067e-12
1.4779e-13
3.87063e-13
2.78017e-13
1.32964e-13
4.33759e-14
-2.7991e-16
1.03532
0.85518
0.5
0.182448
0.00830364
-0.0419281
-0.032441
-0.0120093
3.84408e-05
0.00307766
0.00201936
0.000522644
-0.000189734
-0.000261935
-0.000118925
-6.07723e-06
2.8604e-05
2.02419e-05
5.1951e-06
-2.29093e-06
-2.95764e-06
-1.28134e-06
3.19331e-09
3.65551e-07
2.35646e-07
4.79244e-08
-3.57885e-08
-3.49941e-08
-9.8014e-09
5.9541e-09
7.94775e-09
3.71179e-09
-2.2975e-10
-1.7533e-09
-1.50965e-09
-7.20455e-10
-1.15134e-10
1.4207e-10
1.6469e-10
1.01394e-10
3.94038e-11
4.92937e-12
-6.65865e-12
-6.90322e-12
-4.02294e-12
-1.58857e-12
-3.22356e-13
1.11174e-13
1.62755e-13
8.84743e-14
1.02771
1.01391
0.817552
0.5
0.206389
0.0268058
-0.0388677
-0.0384381
-0.0184166
-0.00302402
0.00284105
0.00282245
0.00118552
4.26329e-05
-0.000296282
-0.000211923
-6.02244e-05
1.88434e-05
2.95098e-05
1.43584e-05
1.18481e-06
-3.30691e-06
-2.53839e-06
-7.39016e-07
2.34413e-07
3.59646e-07
1.61146e-07
-3.9532e-09
-5.13871e-08
-3.10546e-08
-1.95514e-09
1.12828e-08
1.03647e-08
4.54135e-09
6.72896e-12
-1.71404e-09
-1.56524e-09
-8.2813e-10
-2.29255e-10
5.62662e-11
1.17937e-10
8.5595e-11
4.02763e-11
1.10416e-11
-1.20561e-12
-3.74548e-12
-2.75263e-12
-1.33442e-12
-4.40179e-13
1.99905e-15
1.0079
1.04117
0.991696
0.793611
0.5
0.223365
0.042154
-0.0343031
-0.0421139
-0.0239644
-0.00647534
0.00197761
0.00332499
0.00186777
0.000400612
-0.000245072
-0.000285989
-0.00012961
-8.12694e-06
3.1504e-05
2.39308e-05
7.27515e-06
-1.94725e-06
-3.41214e-06
-1.73123e-06
-1.72493e-07
3.80805e-07
2.9042e-07
6.5571e-08
-5.50428e-08
-6.30438e-08
-2.66574e-08
3.69339e-09
1.41438e-08
1.13201e-08
4.96957e-09
4.42796e-10
-1.30812e-09
-1.31706e-09
-7.55568e-10
-2.64493e-10
-9.96495e-12
6.51761e-11
5.76527e-11
3.11421e-11
1.11874e-11
1.54293e-12
-1.39258e-12
-1.47901e-12
-7.14243e-13
0.998871
1.02303
1.04193
0.973194
0.776635
0.5
0.236308
0.0551561
-0.0291433
-0.0442026
-0.0286476
-0.0100134
0.000663015
0.00351518
0.00249279
0.000838181
-0.000110134
-0.000325103
-0.000202449
-4.99026e-05
2.36794e-05
3.12492e-05
1.49621e-05
1.29696e-06
-3.44355e-06
-2.70518e-06
-8.02225e-07
2.72053e-07
4.23579e-07
1.91418e-07
-1.87699e-08
-8.98058e-08
-6.74091e-08
-2.29399e-08
5.73836e-09
1.3832e-08
1.0499e-08
4.72942e-09
7.82975e-10
-7.96087e-10
-9.34246e-10
-5.77498e-10
-2.3253e-10
-4.06444e-11
2.66841e-11
3.22819e-11
1.98328e-11
8.36114e-12
2.14202e-12
-4.59016e-13
0.997793
1.00507
1.03244
1.03887
0.957846
0.763692
0.5
0.246668
0.0663827
-0.0238073
-0.0451887
-0.0325522
-0.0134733
-0.000959176
0.00341734
0.00301639
0.00131432
9.73298e-05
-0.00032096
-0.00026834
-0.000102096
5.30396e-06
3.41136e-05
2.28426e-05
6.11669e-06
-2.43278e-06
-3.46115e-06
-1.60607e-06
-1.04711e-09
5.35585e-07
3.90511e-07
9.95554e-08
-7.16627e-08
-1.01928e-07
-6.35564e-08
-1.9499e-08
5.08836e-09
1.12852e-08
8.43309e-09
3.9181e-09
8.81058e-10
-3.78295e-10
-5.71587e-10
-3.8147e-10
-1.69569e-10
-4.36295e-11
5.93921e-12
1.5188e-11
1.0912e-11
4.10973e-12
0.999036
0.997843
1.01201
1.03844
1.0343
0.944844
0.753332
0.5
0.255249
0.0762288
-0.0184971
-0.0453946
-0.0357829
-0.0167686
-0.00277965
0.00306918
0.00341664
0.00179622
0.000362298
-0.000271033
-0.000319139
-0.000159477
-2.27922e-05
3.1178e-05
2.95813e-05
1.19506e-05
-4.06828e-07
-3.92411e-06
-2.61227e-06
-5.4925e-07
5.24809e-07
6.2342e-07
3.18194e-07
3.50557e-08
-9.00316e-08
-9.4251e-08
-5.32416e-08
-1.57743e-08
3.36259e-09
7.96138e-09
5.97007e-09
2.85765e-09
7.71212e-10
-1.22734e-10
-3.05653e-10
-2.2223e-10
-1.06883e-10
-3.3543e-11
-2.12374e-12
6.45028e-12
0.999961
0.997493
0.999962
1.01842
1.04211
1.02914
0.933617
0.744751
0.5
0.262537
0.0849758
-0.0133115
-0.0450396
-0.0384394
-0.0198576
-0.00471768
0.00251111
0.00368605
0.00225942
0.000669131
-0.000176712
-0.000349082
-0.000216732
-5.85508e-05
2.21814e-05
3.43793e-05
1.84051e-05
2.65936e-06
-3.98222e-06
-3.84212e-06
-1.53217e-06
1.96475e-07
7.50171e-07
5.79855e-07
2.35252e-07
1.78263e-11
-8.31637e-08
-7.49872e-08
-3.99193e-08
-1.18053e-08
1.73981e-09
4.96631e-09
3.77918e-09
1.85871e-09
5.65766e-10
-4.33784e-12
-1.43617e-10
-1.15704e-10
-6.03034e-11
-1.51722e-11
1.00021
0.998989
0.996922
1.00302
1.02396
1.0442
1.02381
0.923771
0.737463
0.5
0.268847
0.0928295
-0.00829714
-0.0442768
-0.0406094
-0.0227243
-0.0067145
0.00178137
0.00382597
0.00268646
0.00100295
-4.21976e-05
-0.000354995
-0.000269383
-9.94612e-05
7.6568e-06
3.70685e-05
2.55215e-05
7.14482e-06
-3.20537e-06
-5.0722e-06
-2.98262e-06
-6.34413e-07
5.66263e-07
7.41497e-07
4.63955e-07
1.59404e-07
-1.34267e-08
-6.41051e-08
-5.27611e-08
-2.69958e-08
-8.07134e-09
6.76403e-10
2.7813e-09
2.16428e-09
1.09094e-09
3.61604e-10
3.19146e-11
-5.96276e-11
-4.98833e-11
1.00013
1
0.997981
0.997159
1.00648
1.02865
1.04519
1.0185
0.915024
0.731153
0.5
0.274394
0.0999444
-0.00347341
-0.0432147
-0.0423674
-0.0253669
-0.00872792
0.000913895
0.00384267
0.00306521
0.00134999
0.000126014
-0.000336699
-0.000314967
-0.000143893
-1.21187e-05
3.74558e-05
3.34506e-05
1.36966e-05
-7.64773e-07
-5.65433e-06
-4.59488e-06
-1.95751e-06
-7.07364e-08
6.37786e-07
6.02222e-07
3.28944e-07
9.92907e-08
-1.49162e-08
-4.3257e-08
-3.339e-08
-1.65927e-08
-5.03293e-09
1.45204e-10
1.41349e-09
1.13193e-09
5.83454e-10
2.08469e-10
8.76592e-12
1.00003
1.00026
0.999477
0.997178
0.998022
1.01001
1.03255
1.04539
1.01331
0.90717
0.725606
0.5
0.279329
0.106439
0.00115479
-0.041932
-0.0437761
-0.0277924
-0.0107281
-6.20573e-05
0.00374537
0.0033882
0.00169852
0.000320396
-0.000296496
-0.000353481
-0.000192149
-3.83541e-05
3.41829e-05
4.15272e-05
2.25714e-05
4.18549e-06
-4.65239e-06
-5.68758e-06
-3.44277e-06
-1.10355e-06
1.88015e-07
5.40015e-07
4.24854e-07
2.09906e-07
5.69083e-08
-1.1642e-08
-2.61864e-08
-1.92318e-08
-9.33714e-09
-2.8728e-09
-4.8917e-11
6.56202e-10
5.50534e-10
2.3506e-10
0.999982
1.00016
1.00019
0.998814
0.996675
0.999337
1.01347
1.03578
1.04504
1.0083
0.900056
0.720671
0.5
0.283765
0.112406
0.00559009
-0.0404872
-0.0448881
-0.0300115
-0.0126936
-0.00112033
0.00354675
0.00365406
0.00204166
0.000535681
-0.000236412
-0.00038568
-0.000245797
-7.386e-05
2.41189e-05
4.74253e-05
3.27679e-05
1.17836e-05
-1.33549e-06
-5.45809e-06
-4.50978e-06
-2.23756e-06
-5.28426e-07
2.45987e-07
3.85348e-07
2.67244e-07
1.21776e-07
3.00518e-08
-7.58786e-09
-1.44335e-08
-1.01719e-08
-4.84311e-09
-1.50992e-09
-8.45374e-11
3.01638e-10
0.999983
1.00003
1.00026
0.999957
0.998132
0.996485
1.00096
1.01677
1.03844
1.04428
1.00347
0.893561
0.716235
0.5
0.287787
0.11792
0.00983919
-0.0389233
-0.0457467
-0.0320365
-0.014608
-0.00223659
0.00326334
0.0038688
0.00238031
0.000773016
-0.000153806
-0.00040922
-0.000304753
-0.000121168
3.28347e-06
4.73156e-05
4.16822e-05
2.08884e-05
4.25038e-06
-3.41844e-06
-4.58766e-06
-3.05096e-06
-1.28695e-06
-2.04339e-07
2.06917e-07
2.41968e-07
1.52189e-07
6.47278e-08
1.46605e-08
-4.35983e-09
-7.31571e-09
-4.9733e-09
-2.3549e-09
-4.92516e-10
0.999994
0.999978
1.00012
1.0003
0.999599
0.997507
0.996583
1.00278
1.01986
1.04061
1.04321
0.998845
0.887594
0.712213
0.5
0.291459
0.12304
0.0139121
-0.037272
-0.0463882
-0.0338813
-0.0164622
-0.00339223
0.00291086
0.0040422
0.00272186
0.00104102
-3.86029e-05
-0.000415064
-0.000363611
-0.000179326
-3.07473e-05
3.73646e-05
4.57869e-05
2.91622e-05
1.10375e-05
2.59914e-07
-3.41597e-06
-3.19436e-06
-1.81884e-06
-6.61165e-07
-5.27604e-08
1.41214e-07
1.36658e-07
7.92845e-08
3.1735e-08
6.63551e-09
-2.25718e-09
-3.47112e-09
-1.95212e-09
1
0.999978
1.00001
1.00021
1.00025
0.999162
0.996984
0.996931
1.00472
1.02272
1.04237
1.04193
0.99441
0.88208
0.70854
0.499999
0.294835
0.127817
0.0178203
-0.0355588
-0.0468481
-0.0355695
-0.0182629
-0.00458519
0.00249226
0.00417668
0.00307138
0.00135008
0.00012405
-0.000387645
-0.000410103
-0.000241494
-7.62935e-05
1.5891e-05
4.21321e-05
3.38986e-05
1.72358e-05
4.72497e-06
-1.20105e-06
-2.56011e-06
-1.9367e-06
-9.71796e-07
-3.04639e-07
2.61972e-09
8.35831e-08
7.03576e-08
3.80909e-08
1.44412e-08
2.83216e-09
-1.4363e-09
1
0.999992
0.999971
1.00006
1.00029
1.00011
0.998686
0.996583
0.997489
1.00671
1.02537
1.04378
1.04049
0.99016
0.87696
0.705165
0.5
0.297956
0.132293
0.021572
-0.0338094
-0.0471672
-0.0371388
-0.0200397
-0.00584024
0.00198452
0.00425279
0.00341777
0.0017007
0.000345106
-0.000310374
-0.000427752
-0.000295386
-0.00012664
-1.51139e-05
2.98528e-05
3.31772e-05
2.10412e-05
8.77122e-06
1.46185e-06
-1.32635e-06
-1.61239e-06
-1.04738e-06
-4.70359e-07
-1.25966e-07
1.46621e-08
4.42063e-08
3.33182e-08
1.71735e-08
4.40269e-09
1
1
0.99998
0.999981
1.00013
1.00033
0.999903
0.998204
0.996314
0.998219
1.00873
1.02779
1.04489
1.03892
0.986089
0.872186
0.702047
0.499998
0.300852
0.1365
0.0251771
-0.0320405
-0.0473789
-0.0386292
-0.021836
-0.00720521
0.00133645
0.004222
0.0037235
0.00207215
0.000620945
-0.000174426
-0.000402135
-0.000326981
-0.00017161
-5.01026e-05
1.08081e-05
2.67125e-05
2.1366e-05
1.1328e-05
3.84436e-06
1.355e-07
-9.72445e-07
-8.9104e-07
-5.12683e-07
-2.07896e-07
-4.66028e-08
1.20795e-08
2.14823e-08
1.27218e-08
1
1
0.999995
0.99997
1.00001
1.0002
1.00032
0.999638
0.997741
0.996174
0.999086
1.01073
1.03001
1.04575
1.03727
0.982188
0.867715
0.699142
0.499984
0.303547
0.14048
0.0286751
-0.0302257
-0.0474717
-0.0400457
-0.0236759
-0.00872497
0.000486346
0.00401612
0.00392687
0.0024194
0.000927186
1.39701e-05
-0.000327664
-0.000325804
-0.000201004
-8.17532e-05
-1.09942e-05
1.59656e-05
1.8221e-05
1.18511e-05
5.37144e-06
1.42489e-06
-2.26994e-07
-5.80843e-07
-4.41902e-07
-2.2954e-07
-8.449e-08
-1.5438e-08
9.18269e-09
1
1
1
0.999986
0.999969
1.00005
1.00027
1.00027
0.999331
0.997314
0.996158
1.00006
1.01269
1.03203
1.04639
1.03557
0.978443
0.863499
0.696409
0.499952
0.306088
0.14432
0.0321755
-0.0282507
-0.0473427
-0.0413103
-0.0255182
-0.0104002
-0.000603733
0.00357316
0.00395913
0.00268239
0.00122154
0.000232077
-0.000211272
-0.000289129
-0.000208227
-0.000103512
-3.08525e-05
3.52799e-06
1.2609e-05
1.04487e-05
5.8008e-06
2.25885e-06
4.21251e-07
-2.25848e-07
-3.01132e-07
-1.99466e-07
-9.58148e-08
-2.20648e-08
1
1
1
0.999999
0.999976
0.999976
1.0001
1.00032
1.00018
0.998997
0.996934
0.996254
1.00112
1.01461
1.03388
1.04685
1.03382
0.974836
0.859501
0.693817
0.499917
0.308551
0.148161
0.0358698
-0.0258981
-0.0467759
-0.0422355
-0.0272245
-0.0121522
-0.0019132
0.00286857
0.00376997
0.00280439
0.00145524
0.000446202
-7.10751e-05
-0.000223102
-0.000192382
-0.000111681
-4.49566e-05
-7.85428e-06
6.05347e-06
7.73526e-06
5.23915e-06
2.54136e-06
8.43498e-07
7.8685e-08
-1.42575e-07
-1.41187e-07
-6.98523e-08
1
1
1
1
0.999993
0.999969
0.999995
1.00016
1.00035
1.00004
0.998648
0.996611
0.996457
1.00224
1.01646
1.03555
1.04715
1.03205
0.971373
0.855699
0.691339
0.499875
0.310994
0.15214
0.0399743
-0.0228949
-0.0454772
-0.0425436
-0.0285643
-0.0138163
-0.00334708
0.00193617
0.00334918
0.00275131
0.00158802
0.000621716
6.91938e-05
-0.00014051
-0.000158108
-0.00010623
-5.14237e-05
-1.61446e-05
3.21856e-08
4.53444e-06
4.02814e-06
2.34693e-06
1.00621e-06
2.78255e-07
-8.8496e-09
-7.46515e-08
1
1
1
1
1
0.999985
0.999966
1.00002
1.00022
1.00035
0.99987
0.998298
0.996353
0.996755
1.0034
1.01823
1.03706
1.04735
1.03034
0.968086
0.85204
0.688836
0.49966
0.313297
0.15625
0.0446091
-0.019016
-0.0431615
-0.0419369
-0.0292662
-0.0151726
-0.00474964
0.000867625
0.00273454
0.00252336
0.00159997
0.000733043
0.000187319
-5.64923e-05
-0.000113544
-9.02232e-05
-5.04828e-05
-2.04558e-05
-4.44202e-06
1.58538e-06
2.58052e-06
1.85003e-06
9.52535e-07
3.66308e-07
4.14029e-08
1
1
1
1
1
0.999999
0.999977
0.999969
1.00006
1.00027
1.00033
0.999672
0.997966
0.996165
0.997118
1.00454
1.01989
1.03849
1.04759
1.02881
0.964934
0.848239
0.685818
0.498708
0.31498
0.160187
0.0496706
-0.0142007
-0.039661
-0.0401942
-0.0290961
-0.0160047
-0.00594304
-0.000209266
0.00200289
0.00215466
0.001496
0.00076973
0.000268326
1.58295e-05
-6.75446e-05
-6.83807e-05
-4.39414e-05
-2.10115e-05
-6.97775e-06
-6.39588e-07
1.24244e-06
1.24285e-06
7.74151e-07
2.79792e-07
1
1
1
1
1
1
0.999993
0.999971
0.99998
1.0001
1.00031
1.00028
0.999468
0.997666
0.996019
0.997473
1.00561
1.02152
1.04005
1.04813
1.02748
0.96152
0.84346
0.681173
0.495883
0.315093
0.163289
0.0547731
-0.00862308
-0.0350064
-0.0372524
-0.0279323
-0.0161615
-0.00677494
-0.00116411
0.00124911
0.00170232
0.00130197
0.000736995
0.000307016
6.82392e-05
-2.73051e-05
-4.54849e-05
-3.43132e-05
-1.87786e-05
-7.72404e-06
-1.97729e-06
2.20521e-07
6.88395e-07
4.70858e-07
1
1
1
1
1
1
1
0.999988
0.999968
0.999995
1.00014
1.00033
1.00023
0.999279
0.997376
0.995831
0.99775
1.0067
1.02342
1.04211
1.04907
1.0259
0.956705
0.836031
0.673047
0.489497
0.312315
0.164627
0.0593027
-0.00268078
-0.0294457
-0.033242
-0.0258064
-0.0155988
-0.00715638
-0.00189565
0.000562063
0.00123031
0.00105556
0.000651689
0.000307152
9.82267e-05
2.93452e-06
-2.5212e-05
-2.39982e-05
-1.49985e-05
-7.15715e-06
-2.51068e-06
-4.20604e-07
3.00985e-07
1
1
1
1
1
1
1
1
0.999984
0.999968
1.00001
1.00017
1.00037
1.0002
0.999086
0.996997
0.995497
0.998005
1.00813
1.02606
1.04492
1.04999
1.02271
0.948331
0.82343
0.659046
0.477616
0.305248
0.163237
0.0625668
0.00309288
-0.0233963
-0.0284647
-0.0228987
-0.0143871
-0.00707796
-0.0023512
6.05694e-06
0.000794413
0.00079571
0.00053601
0.000278424
0.000108025
2.20023e-05
-9.62278e-06
-1.47578e-05
-1.07996e-05
-5.84844e-06
-2.48242e-06
-4.64988e-07
1
1
1
1
1
1
1
1
1
0.99998
0.99996
1.00002
1.00022
1.00045
1.00018
0.998781
0.996397
0.995048
0.998593
1.0105
1.02987
1.04815
1.04941
1.01537
0.933303
0.802665
0.636768
0.458571
0.292821
0.158392
0.0639793
0.00815754
-0.0173511
-0.0233246
-0.019493
-0.0126878
-0.00660236
-0.00252998
-0.000387733
0.000432578
0.000554326
0.000411499
0.000232743
0.00010271
3.10772e-05
7.55071e-07
-7.54214e-06
-6.97463e-06
-4.35074e-06
-1.65602e-06
1
1
1
1
1
1
0.999999
1
1.00001
0.999999
0.999967
0.999945
1.00004
1.00033
1.00055
1.00005
0.998204
0.995568
0.994838
1.00019
1.01436
1.0346
1.05026
1.0445
1.00032
0.908149
0.771013
0.604486
0.431481
0.274633
0.149824
0.063211
0.0120874
-0.0117729
-0.0182411
-0.0159109
-0.0107097
-0.00584014
-0.00247284
-0.000619706
0.000162046
0.000351925
0.00029493
0.000181132
8.82266e-05
3.2635e-05
6.4897e-06
-2.57797e-06
-4.00232e-06
-2.51621e-06
1
1
1
1
1
1
0.999999
1
1.00001
1.00001
0.999988
0.99994
0.999941
1.00013
1.00049
1.00059
0.999645
0.997306
0.99484
0.995588
1.00349
1.01964
1.03877
1.04825
1.03135
0.973702
0.869912
0.726828
0.561731
0.396577
0.251106
0.137806
0.0602587
0.0146488
-0.0070112
-0.0135711
-0.0124488
-0.00866286
-0.0049196
-0.0022448
-0.00071341
-1.79638e-05
0.000197208
0.000196613
0.000131873
6.9894e-05
2.94708e-05
8.71568e-06
3.63702e-07
-1.93249e-06
1
1
1
1
1
1
0.999999
0.999998
1
1.00001
1
0.999962
0.999919
0.999994
1.00028
1.00061
1.00036
0.998869
0.996382
0.994949
0.998086
1.00854
1.0249
1.03927
1.03792
1.00573
0.932326
0.817054
0.670134
0.50954
0.355231
0.223424
0.123081
0.0554229
0.01582
-0.00325958
-0.00956034
-0.00933261
-0.0067228
-0.00396008
-0.00191702
-0.000704527
-0.000120475
8.9357e-05
0.000120708
8.99225e-05
5.16225e-05
2.40237e-05
8.75035e-06
8.99635e-07
1
1
1
1
1
1
0.999999
0.999998
1
1.00001
1.00001
0.999983
0.999937
0.999946
1.00012
1.00043
1.0005
0.999761
0.997979
0.996152
0.996739
1.00251
1.01403
1.02704
1.03168
1.01471
0.964216
0.874701
0.750035
0.602773
0.450309
0.309686
0.193275
0.1067
0.0492182
0.0157594
-0.000554694
-0.00632787
-0.00669866
-0.00501037
-0.00305455
-0.00155284
-0.00063086
-0.000164374
2.15234e-05
6.67224e-05
5.72789e-05
3.57214e-05
1.8271e-05
5.67774e-06
1
1
1
1
1
1
1
0.999999
1
1
1.00001
0.999993
0.999962
0.999953
1.00004
1.00024
1.00037
1.00005
0.999011
0.997669
0.997483
1.00048
1.00765
1.01686
1.02149
1.0112
0.974955
0.905256
0.801581
0.671366
0.528081
0.387318
0.262609
0.162525
0.0897992
0.0422536
0.0147424
0.00119237
-0.00388002
-0.00459628
-0.00358851
-0.00226269
-0.00119996
-0.000525352
-0.000169168
-1.5782e-05
3.13937e-05
3.37733e-05
2.34743e-05
1.05744e-05
1
1
1
1
1
1
1
0.999999
1
1
1
0.999994
0.999977
0.999976
1.00003
1.00013
1.00019
0.999998
0.999446
0.998771
0.998798
1.0007
1.00507
1.0105
1.01244
1.00325
0.973878
0.916937
0.829731
0.715947
0.58514
0.450236
0.324114
0.216613
0.132895
0.0734194
0.0351193
0.013092
0.00214962
-0.00214093
-0.00300608
-0.00247047
-0.00161245
-0.000888279
-0.0004126
-0.000151619
-3.21144e-05
1.03031e-05
1.83387e-05
1.26064e-05
1
1
1
1
1
1
1
0.999999
1
1
1
0.999992
0.999982
0.999996
1.00005
1.0001
1.00006
0.99984
0.999496
0.999323
0.99988
1.00172
1.00477
1.00755
1.00643
0.99562
0.96814
0.917813
0.84153
0.740892
0.622432
0.496237
0.373498
0.263924
0.17388
0.105741
0.05837
0.0283052
0.0111177
0.002517
-0.000988105
-0.00186422
-0.00163413
-0.00110678
-0.000631861
-0.000308281
-0.000124254
-3.56005e-05
-7.7105e-07
8.79854e-06
1
1
1
1
1
1
1
0.999999
1
1
1
0.999989
0.999982
1.00001
1.00007
1.0001
0.999996
0.999704
0.999387
0.999477
1.0005
1.00269
1.00544
1.00682
1.00337
0.990256
0.962061
0.914071
0.843778
0.752093
0.643716
0.526425
0.409464
0.30156
0.209243
0.135935
0.0819455
0.0451742
0.0221576
0.00907596
0.00248891
-0.000284036
-0.00108579
-0.00103716
-0.000732257
-0.000432891
-0.000220412
-9.52448e-05
-3.25479e-05
-2.31121e-06
1
1
1
1
1
1
1
0.999999
1
1
1
0.999987
0.999979
1.00001
1.00008
1.00012
0.999985
0.999628
0.999264
0.999433
1.00074
1.00332
1.00623
1.00714
1.00233
0.987301
0.957531
0.909508
0.841679
0.755134
0.653793
0.543936
0.433137
0.328856
0.237121
0.161648
0.103597
0.0619172
0.0340746
0.0168733
0.00715167
0.00223032
0.000101055
-0.000583024
-0.000629878
-0.000467009
-0.000286112
-0.000151346
-6.98802e-05
-1.95277e-05
1
1
1
1
1
1
1
0.999999
1
1
1
0.999987
0.999977
1.00001
1.00008
1.00013
0.999994
0.999601
0.999181
0.999337
1.00076
1.00361
1.00681
1.00772
1.00235
0.986106
0.954867
0.905886
0.838472
0.75427
0.657125
0.552578
0.447052
0.346857
0.257251
0.181739
0.121803
0.0770456
0.0456653
0.0250805
0.0125187
0.00545724
0.00186633
0.000276172
-0.000277018
-0.000364174
-0.000286922
-0.000182499
-0.000101225
-3.87912e-05
1
1
1
1
1
1
1
0.999999
1
1
1
0.999987
0.999976
1.00001
1.00009
1.00014
1.00001
0.999601
0.999142
0.999259
1.0007
1.00369
1.00712
1.00821
1.00272
0.985894
0.953653
0.903627
0.83573
0.752182
0.657099
0.555824
0.45415
0.357556
0.270544
0.196182
0.135908
0.0896141
0.0559774
0.0329112
0.0180354
0.00906194
0.00404351
0.00148179
0.000324748
-0.00010345
-0.000198611
-0.000169367
-0.000113744
-5.40647e-05
1
1
1
1
1
1
1
0.999999
1
1
1
0.999987
0.999976
1
1.00008
1.00014
1.00002
0.999609
0.999132
0.999215
1.00064
1.00367
1.00724
1.0085
1.00309
0.986082
0.953303
0.902502
0.833921
0.750218
0.655863
0.556293
0.457064
0.363162
0.278516
0.205727
0.146002
0.0992704
0.0644461
0.0397762
0.0232043
0.0126854
0.00640878
0.0029158
0.00112712
0.000305528
-1.38472e-05
-0.000100223
-9.69818e-05
-5.8988e-05
1
1
1
1
1
1
1
0.999999
1
1
1
0.999987
0.999976
1
1.00008
1.00014
1.00002
0.999617
0.999135
0.999199
1.0006
1.00363
1.00725
1.00863
1.00334
0.98634
0.953348
0.902094
0.832953
0.748846
0.654538
0.55566
0.457765
0.365618
0.282786
0.211494
0.152674
0.106151
0.0709009
0.045352
0.0276726
0.0160226
0.00873697
0.00443376
0.00205034
0.00082672
0.00025654
2.60486e-05
-4.57485e-05
-4.86681e-05
1
1
1
1
1
1
1
0.999999
1
1
1
0.999987
0.999976
1
1.00008
1.00014
1.00002
0.999622
0.999141
0.999196
1.00058
1.00359
1.00723
1.00867
1.00347
0.986536
0.953505
0.902044
0.832549
0.748065
0.65355
0.554821
0.457524
0.366372
0.284753
0.21464
0.156731
0.110698
0.0754799
0.0495695
0.0312639
0.0188692
0.0108465
0.00589865
0.00300419
0.00140836
0.000587436
0.000200219
3.87157e-05
-2.09713e-05
1
1
1
1
1
1
1
0.999999
1
1
1
0.999987
0.999976
1
1.00008
1.00014
1.00002
0.999624
0.999145
0.999199
1.00057
1.00357
1.0072
1.00866
1.00352
0.986648
0.953645
0.902121
0.832447
0.747705
0.652955
0.554147
0.457032
0.366359
0.285452
0.216147
0.158978
0.113477
0.0785049
0.0525485
0.0339603
0.0211342
0.0126233
0.00720557
0.00390767
0.00199583
0.000946448
0.000405691
0.000149444
2.30581e-05
1
1
1
1
1
1
1
0.999999
1
1
1
0.999987
0.999976
1
1.00008
1.00014
1.00002
0.999624
0.999148
0.999202
1.00057
1.00356
1.00718
1.00865
1.00352
0.986697
0.953734
0.902212
0.832469
0.747585
0.652659
0.553717
0.456596
0.366099
0.285553
0.216737
0.160089
0.115037
0.0803618
0.0545151
0.0358569
0.0228228
0.0140235
0.00829317
0.00470198
0.00254254
0.00130142
0.000622854
0.000275824
7.96696e-05
1
1
1
1
1
1
1
0.999999
1
1
1
0.999987
0.999976
1
1.00008
1.00014
1.00002
0.999624
0.999148
0.999204
1.00057
1.00356
1.00718
1.00863
1.00352
0.986711
0.953778
0.902277
0.832521
0.747574
0.652543
0.553489
0.456301
0.365833
0.285436
0.21688
0.160556
0.115827
0.0814151
0.0557267
0.0371077
0.0240056
0.0150603
0.00914242
0.00535543
0.00301655
0.00162631
0.00083331
0.000406202
0.000143485
1
1
1
1
1
1
1
0.999999
1
1
1
0.999987
0.999976
1
1.00008
1.00014
1.00002
0.999623
0.999149
0.999205
1.00058
1.00356
1.00717
1.00863
1.00351
0.98671
0.953794
0.902313
0.832565
0.747598
0.652517
0.55339
0.456135
0.36564
0.285284
0.216845
0.160699
0.116178
0.0819607
0.0564204
0.0378807
0.0247849
0.0157836
0.00976717
0.00586123
0.00340225
0.00190429
0.0010229
0.000530212
0.000208771
1
1
1
1
1
1
1
0.999999
1
1
1
0.999987
0.999976
1
1.00008
1.00014
1.00002
0.999623
0.999148
0.999206
1.00058
1.00356
1.00717
1.00862
1.0035
0.986706
0.953797
0.902328
0.832591
0.747625
0.652524
0.553359
0.456057
0.365526
0.285165
0.216765
0.160704
0.116301
0.0822125
0.0567861
0.0383268
0.0252676
0.0162595
0.0102012
0.00623096
0.00369827
0.00212811
0.00118306
0.000640248
0.000270505
1
1
1
1
1
1
1
0.999999
1
1
1
0.999987
0.999976
1
1.00008
1.00014
1.00002
0.999623
0.999148
0.999206
1.00058
1.00356
1.00717
1.00862
1.0035
0.986702
0.953796
0.902333
0.832604
0.747643
0.652538
0.553356
0.456028
0.365468
0.28509
0.216695
0.160668
0.116324
0.0823101
0.0569605
0.0385656
0.0255482
0.0165552
0.0104868
0.00648715
0.00391365
0.00229881
0.00131098
0.000732323
0.00032528
1
1
1
1
1
1
1
0.999999
1
1
1
0.999987
0.999976
1
1.00008
1.00014
1.00002
0.999623
0.999148
0.999206
1.00058
1.00356
1.00717
1.00862
1.0035
0.986699
0.953794
0.902333
0.832609
0.747653
0.652549
0.553362
0.456021
0.365444
0.28505
0.216648
0.160629
0.116311
0.0823364
0.0570327
0.0386819
0.025699
0.016726
0.0106619
0.00665264
0.00405952
0.00241965
0.00140546
0.000803197
0.000369625
1
1
1
1
1
1
1
0.999999
1
1
1
0.999987
0.999976
1
1.00008
1.00014
1.00002
0.999623
0.999148
0.999206
1.00058
1.00356
1.00717
1.00862
1.0035
0.986698
0.953792
0.902332
0.832611
0.747658
0.652557
0.55337
0.456024
0.365436
0.285029
0.216617
0.160595
0.116286
0.082332
0.057058
0.0387403
0.0257881
0.0168383
0.0107868
0.00677911
0.00417809
0.00252369
0.00149141
0.000871251
0.000415156
)
;

boundaryField
{
    upperWall
    {
        type            zeroGradient;
    }
    outlet
    {
        type            zeroGradient;
    }
    inlet
    {
        type            fixedValue;
        value           uniform 1;
    }
    lowerWall
    {
        type            fixedValue;
        value           uniform 0;
    }
    frontAndBack
    {
        type            empty;
    }
}


// ************************************************************************* //
