/*--------------------------------*- C++ -*----------------------------------*\
  =========                 |
  \\      /  F ield         | OpenFOAM: The Open Source CFD Toolbox
   \\    /   O peration     | Website:  https://openfoam.org
    \\  /    A nd           | Version:  7
     \\/     M anipulation  |
\*---------------------------------------------------------------------------*/
FoamFile
{
    version     2.0;
    format      ascii;
    class       volScalarField;
    location    "0.9";
    object      T;
}
// * * * * * * * * * * * * * * * * * * * * * * * * * * * * * * * * * * * * * //

dimensions      [0 0 0 1 0 0 0];

internalField   nonuniform List<scalar> 
46572
(
-1.22055e-50
-7.68439e-49
0
-3.71253e-48
0
-2.47794e-47
0
-5.14951e-47
0
-4.15682e-47
0
-1.12122e-47
0
0
0
0
0
-3.02294e-40
0
-5.71544e-39
0
-7.96655e-38
0
-5.73377e-37
0
-3.27076e-36
0
-1.50323e-35
0
-5.66924e-35
0
-1.82994e-34
0
-5.36789e-34
0
-1.34197e-33
0
-3.39456e-33
0
-6.24968e-33
0
-9.40984e-33
0
-1.15944e-32
0
-1.24502e-32
0
-1.2243e-32
0
-1.17218e-32
0
-1.18335e-32
0
-1.25007e-32
0
-1.38109e-32
0
-1.4803e-32
0
-1.49145e-32
0
-1.39417e-32
0
-1.24574e-32
0
-1.174e-32
0
-1.14906e-32
0
-1.03933e-32
0
-9.1361e-33
0
-8.05678e-33
0
-5.80926e-33
0
-3.9103e-33
0
-2.39224e-33
0
-1.12795e-33
0
-4.35014e-34
0
-1.16238e-34
0
-2.6205e-35
0
-5.83664e-36
0
-8.36145e-37
0
-5.43181e-38
0
0
0
0
0
0
0
0
0
0
0
0
0
0
0
0
0
0
0
0
0
0
0
0
0
0
0
0
0
0
0
0
0
0
0
0
0
0
0
0
0
0
0
0
0
0
0
0
0
0
0
0
0
0
0
0
0
0
0
0
0
0
0
0
0
0
0
0
0
0
0
0
0
0
0
0
0
0
0
0
0
0
0
0
0
0
0
0
0
0
0
0
0
0
0
0
0
0
0
0
0
0
0
0
0
0
0
0
0
0
0
0
0
0
0
0
0
0
0
0
0
0
0
0
0
0
0
0
0
0
0
0
0
0
0
0
0
0
0
0
0
0
0
0
0
0
0
0
0
0
0
-7.09642e-153
-1.11584e-152
4.9018e-136
-3.40405e-138
-6.45372e-133
-8.84402e-133
5.21541e-130
6.65475e-130
-7.23204e-124
-2.61488e-127
-2.26342e-120
-2.78769e-120
-1.57558e-119
-1.95475e-119
-4.31305e-118
1.95187e-117
1.08669e-116
1.94385e-117
8.05832e-114
1.53849e-114
7.79005e-113
1.46444e-111
2.79757e-110
9.60445e-110
7.77883e-110
2.28876e-109
9.44381e-110
4.85864e-109
-7.44842e-108
2.0257e-107
6.27586e-107
2.30742e-106
-5.95174e-106
1.26132e-105
-3.8062e-103
-4.73432e-103
-1.3086e-101
5.12462e-101
-4.78824e-100
1.03706e-100
-1.00322e-98
1.61969e-98
-1.2161e-96
-1.2827e-96
-1.30411e-96
-1.47633e-96
-8.82001e-97
-8.52999e-97
-1.47742e-96
5.7724e-97
-1.33825e-94
-1.52776e-94
-8.56906e-95
-9.62323e-95
-1.38245e-94
2.41644e-94
-8.34876e-94
-5.37639e-94
-1.06174e-93
-9.88861e-94
-9.26767e-94
-7.59045e-94
-8.29103e-94
-4.48022e-95
-4.83045e-93
-5.14592e-93
-9.13373e-93
-8.89116e-93
-6.21159e-93
-6.036e-93
-5.17794e-93
-4.32096e-93
-7.49902e-92
-7.22757e-92
-5.2151e-92
-3.94423e-92
-3.83595e-92
-2.08152e-92
-3.02139e-92
-4.47811e-93
-2.37451e-92
-2.52658e-93
-1.81828e-91
8.79809e-92
-1.90672e-91
8.78668e-92
-3.33821e-90
-1.77694e-90
-7.1783e-90
-7.23994e-90
-4.73358e-90
-4.66039e-90
-3.91608e-90
-5.62368e-91
-8.33737e-90
-5.02711e-90
-1.30943e-89
-5.91202e-90
-2.7751e-89
-5.80422e-90
-2.91817e-89
1.12553e-89
-1.62819e-88
-1.51492e-88
-1.08658e-88
-9.92331e-89
-7.92924e-89
-4.07834e-89
-1.05265e-88
-9.10279e-89
-7.3098e-89
-6.05861e-89
-5.87967e-89
-1.48613e-89
-2.70016e-88
-2.66816e-88
-1.78324e-88
-1.71146e-88
-1.40446e-88
-4.2387e-89
-2.14538e-88
-1.16103e-88
-2.22566e-88
-1.72691e-88
-1.77145e-88
-1.17654e-88
-1.50013e-88
-3.31499e-89
-3.46514e-88
-3.35923e-88
-2.93767e-88
-9.10282e-90
-3.28807e-88
-1.55112e-88
-2.34443e-88
-1.07253e-88
-1.70202e-88
-8.11062e-89
-1.39034e-88
-7.0382e-90
-2.09783e-88
-7.6508e-89
-5.04204e-88
-4.13126e-88
-7.87859e-88
-5.65953e-88
-5.64503e-88
-3.8975e-88
-4.03918e-88
-2.48998e-88
-6.48406e-88
-2.17703e-88
-9.04086e-88
-7.2594e-88
-6.11351e-88
-4.61514e-88
-4.68201e-88
-1.75264e-88
-4.90982e-88
-2.50843e-88
-3.70603e-88
-2.00832e-88
-2.65473e-88
-1.63208e-88
-2.12343e-88
-3.48987e-89
-3.25849e-88
-2.70208e-88
-4.63691e-88
-4.33445e-88
-2.91123e-88
-3.78642e-88
-1.74633e-88
-3.36645e-88
-7.62371e-89
-3.57795e-88
1.07554e-88
-7.28625e-88
3.24861e-88
-6.40787e-88
4.60291e-88
-7.91031e-88
5.75484e-88
-6.69038e-88
7.97876e-88
-2.67221e-88
5.26334e-88
1.29059e-87
-1.70546e-88
2.96228e-87
-2.03514e-87
5.60706e-87
-2.46972e-87
4.53305e-87
-5.14279e-87
8.81437e-87
-6.75914e-87
8.87363e-87
-7.11552e-87
5.07962e-87
-8.08483e-87
8.22547e-87
-9.6456e-87
1.49001e-86
-2.97462e-86
2.504e-86
-3.01105e-86
4.85174e-86
-5.69654e-86
1.07033e-85
-9.55719e-86
1.30407e-85
-1.14738e-85
1.07645e-85
-1.22994e-85
1.19219e-85
-1.4247e-85
1.49108e-85
-1.57773e-85
1.45407e-85
-1.79595e-85
1.58115e-85
-1.78815e-85
1.11385e-85
-1.65001e-85
7.15061e-86
-1.50631e-85
7.17215e-86
-1.36826e-85
6.0623e-86
-1.28128e-85
6.4098e-86
-1.57119e-85
1.66073e-85
-1.93152e-85
9.90338e-86
-2.04915e-85
1.47328e-85
-1.92689e-85
1.33417e-85
-2.54835e-85
1.80902e-85
-2.92407e-85
7.91363e-86
-2.56008e-85
1.42816e-85
-2.80748e-85
2.11676e-85
-2.71843e-85
1.51895e-85
-3.01395e-85
2.70581e-85
-3.82162e-85
4.12677e-85
-4.78979e-85
5.41263e-85
-4.81074e-85
4.87457e-85
-5.18569e-85
5.69852e-85
-5.59625e-85
6.05959e-85
-6.4516e-85
5.62336e-85
-6.00151e-85
4.05131e-85
-7.31169e-85
5.45765e-85
-8.21282e-85
3.96009e-85
-7.45008e-85
4.94201e-85
-7.59922e-85
5.35656e-85
-7.80345e-85
5.37894e-85
-7.35559e-85
4.49194e-85
-6.91595e-85
4.29674e-85
-6.50935e-85
2.35361e-85
-5.80293e-85
1.61722e-85
-4.87248e-85
1.53392e-85
-4.27395e-85
1.77035e-85
-3.59794e-85
1.21119e-85
-3.001e-85
7.53035e-86
-2.48419e-85
7.09011e-86
-1.70689e-85
6.92045e-86
-1.41085e-85
6.96875e-86
-1.05806e-85
7.24012e-87
-6.7596e-86
6.62473e-87
-4.05496e-86
1.48158e-86
-2.59608e-86
-5.22227e-88
-5.35129e-87
-1.97876e-86
2.52654e-86
2.02721e-86
3.04978e-86
-9.94887e-87
-1.63033e-86
-1.97246e-86
1.1078e-85
1.14788e-84
3.38841e-83
-2.98164e-83
2.71975e-82
-4.8864e-82
4.98115e-81
5.31429e-81
-3.13845e-82
-2.43637e-80
1.05268e-78
6.39446e-80
-1.06216e-76
5.405e-77
-3.25176e-75
-3.3859e-76
-8.4506e-74
2.05542e-74
4.81156e-73
1.17549e-72
-4.97222e-72
4.86275e-72
2.14631e-70
7.27767e-71
-1.03439e-69
1.01898e-69
2.69812e-68
-9.24701e-69
8.10749e-68
6.26747e-67
3.2669e-65
2.62195e-65
2.67354e-64
1.05203e-64
5.1591e-63
-1.01011e-64
-3.69622e-62
-0.00016835
-5.56377e-05
-3.72678e-06
-1.12586e-07
7.03544e-09
4.87738e-10
6.43218e-12
-1.83075e-13
-5.37175e-15
-4.27801e-17
-1.2243e-19
-2.01129e-21
1.27832e-22
-3.31969e-25
-3.42781e-26
2.39938e-29
1.45927e-30
1.09424e-33
-2.75489e-35
-6.02651e-38
1.54651e-39
-7.40444e-42
1.43604e-45
2.02877e-46
-1.61578e-48
1.11812e-50
-1.02331e-52
8.95323e-55
-6.01387e-57
2.24872e-59
-0.000173527
1.54025e-11
1.21681e-10
9.0604e-11
-7.68306e-11
3.99371e-10
2.15217e-09
2.10266e-10
-1.15635e-08
-2.2032e-08
2.25331e-08
1.26445e-07
1.20784e-08
-1.18475e-06
-4.50146e-06
-9.05867e-06
-7.05552e-06
2.60293e-05
0.00014625
0.000454208
0.00110251
0.00235146
0.00449829
0.00784695
0.012929
0.0199629
0.0293371
0.0410354
0.0554584
0.0721217
0.089924
0.107978
0.128345
0.146819
0.163078
0.175585
0.184341
0.190417
0.189563
0.181935
0.170543
0.153144
0.131373
0.108095
0.0812912
0.0560058
0.0302582
0.0072078
-0.0151443
-0.0343777
-0.0489325
-0.0599371
-0.0679545
-0.0746625
-0.0770335
-0.0747022
-0.0731563
-0.0684846
-0.062586
-0.0563967
-0.0480379
-0.0428331
-0.0368645
-0.030728
-0.0256315
-0.0212566
-0.0175957
-0.0143186
-0.0109952
-0.00883842
-0.00685015
-0.00519053
-0.0039422
-0.00301283
-0.0022323
-0.00163919
-0.00117413
-0.000874347
-0.000631599
-0.000467708
-0.000262878
-0.000176128
-4.68483e-13
-9.81055e-14
3.94082e-13
3.11344e-13
-6.15012e-13
4.31978e-12
6.61141e-13
5.46519e-12
6.75236e-12
-9.55849e-12
-4.5118e-12
-1.65606e-11
7.02356e-13
-4.18206e-13
1.56403e-13
-1.98965e-13
2.08198e-13
3.2751e-13
-1.24267e-12
1.12242e-12
-6.78251e-13
3.95567e-13
7.76676e-13
-2.96425e-12
-1.9014e-12
2.2273e-12
1.05678e-13
-1.64407e-12
1.26965e-12
-2.83986e-12
-3.2248e-12
3.84625e-13
-1.08746e-12
1.6576e-12
5.29612e-13
2.98717e-12
2.14983e-12
-1.25907e-12
1.91519e-12
6.3006e-13
-5.10326e-13
1.52684e-12
3.46893e-12
6.08319e-12
8.40873e-13
-7.47435e-12
-1.22557e-12
-9.49989e-12
2.06858e-12
-1.54941e-11
-1.97107e-11
-4.09635e-12
-1.06413e-11
-7.71848e-12
-3.20103e-12
1.9977e-11
7.16008e-12
9.03117e-12
1.48555e-11
-8.25719e-12
5.69634e-12
-7.37076e-11
-1.01428e-11
-9.93207e-11
-4.92205e-11
-6.74845e-11
-3.98113e-11
4.87509e-12
-2.05244e-11
7.7638e-12
3.75972e-11
-6.86987e-11
1.15924e-11
-1.82105e-10
-1.44059e-10
-2.26786e-10
-3.49277e-10
-7.44081e-11
-5.26646e-10
3.54112e-10
-3.81382e-10
9.16344e-10
6.73033e-11
1.20475e-09
4.07298e-10
-5.44865e-11
5.72471e-11
-3.64017e-09
-2.31212e-09
-9.72396e-09
-7.89109e-09
-1.62862e-08
-1.68584e-08
-1.7977e-08
-2.68833e-08
-6.25928e-09
-3.34268e-08
2.78295e-08
-2.79273e-08
9.16592e-08
-5.12547e-09
1.84575e-07
3.86458e-08
2.77379e-07
9.40211e-08
3.27096e-07
1.26054e-07
2.44171e-07
7.55689e-08
-7.30522e-08
-1.77691e-07
-7.26785e-07
-7.79734e-07
-1.74078e-06
-1.8843e-06
-3.02545e-06
-3.64613e-06
-4.04268e-06
-6.07444e-06
-3.8187e-06
-9.01346e-06
-4.86626e-07
-1.17215e-05
8.95374e-06
-1.2964e-05
2.89964e-05
-1.12098e-05
6.70663e-05
-2.47144e-06
0.000131179
1.92749e-05
0.000234177
5.75351e-05
0.000393571
0.000124873
0.000623486
0.000231215
0.000954008
0.000385932
0.00140044
0.000618612
0.00202322
0.000925597
0.00281577
0.00137348
0.0038426
0.00192872
0.00517755
0.00268055
0.00677329
0.0036212
0.00872927
0.00473816
0.0111913
0.00615654
0.0140225
0.00791193
0.0173065
0.00985341
0.0212744
0.0122251
0.0255742
0.0148733
0.0304319
0.0177343
0.0361053
0.0210786
0.0417589
0.0247291
0.0486022
0.0287157
0.0560896
0.0335738
0.0635991
0.0383541
0.0717838
0.043082
0.0795961
0.0481785
0.0887879
0.0533713
0.0975736
0.0590581
0.10598
0.0638799
0.115632
0.0694394
0.123512
0.0741021
0.131235
0.0778905
0.139869
0.0820761
0.145191
0.0852496
0.152626
0.0882982
0.159415
0.0925546
0.163817
0.0946388
0.167885
0.0950959
0.169304
0.0951648
0.171961
0.0939484
0.171696
0.0929095
0.169912
0.089059
0.169077
0.086613
0.164387
0.0811581
0.158691
0.0746189
0.154072
0.0691038
0.146976
0.0627757
0.138105
0.0537109
0.129462
0.0461013
0.119048
0.0370816
0.108881
0.0268728
0.0971911
0.0169749
0.0863356
0.00660768
0.0740847
-0.00295488
0.0619376
-0.0139216
0.0496052
-0.0231103
0.0376721
-0.0337125
0.0259163
-0.0435578
0.0141784
-0.0523188
0.0027883
-0.0608234
-0.00727167
-0.0692493
-0.0180514
-0.0762857
-0.0265464
-0.0831438
-0.034519
-0.0889025
-0.0432332
-0.0938411
-0.048645
-0.0977156
-0.054799
-0.10162
-0.0613098
-0.104975
-0.0660756
-0.10711
-0.069805
-0.108517
-0.071688
-0.108707
-0.0740779
-0.109115
-0.0761247
-0.108392
-0.0752309
-0.106692
-0.0774571
-0.104861
-0.0752443
-0.102081
-0.0734177
-0.0986862
-0.0736023
-0.0963539
-0.0715801
-0.0929179
-0.0681777
-0.0884915
-0.0666793
-0.0848116
-0.0639877
-0.0806931
-0.0611871
-0.0764464
-0.0574911
-0.0719412
-0.0546319
-0.0678866
-0.0516816
-0.063622
-0.0479266
-0.0590941
-0.0457431
-0.055343
-0.0418246
-0.0509439
-0.0384297
-0.0467748
-0.0360676
-0.0433858
-0.0334189
-0.0400297
-0.0301811
-0.0364028
-0.0279793
-0.0333859
-0.0254786
-0.0303481
-0.0231626
-0.0274918
-0.0208168
-0.0247481
-0.0188259
-0.0224031
-0.0170018
-0.0201237
-0.0150545
-0.0178256
-0.0133166
-0.0157519
-0.0119681
-0.0141439
-0.0106992
-0.0126312
-0.00964093
-0.0113317
-0.00859924
-0.010083
-0.00747336
-0.00883018
-0.0067154
-0.00782986
-0.00581573
-0.00680699
-0.00502621
-0.00591635
-0.00444742
-0.00518816
-0.00378657
-0.00444852
-0.00331574
-0.00389229
-0.00292487
-0.00342239
-0.0025346
-0.00296971
-0.0021962
-0.0025677
-0.00187984
-0.00220896
-0.00162944
-0.00191185
-0.00140738
-0.0016427
-0.00118721
-0.0013956
-0.00103414
-0.00120529
-0.000875596
-0.0010255
-0.000749058
-0.000873852
-0.000652167
-0.0007497
-0.000549442
-0.000627904
-0.00044488
-0.000519279
-0.0003732
-0.000453074
-0.000376488
-0.000275579
-0.000404606
-2.47671e-18
3.33061e-17
4.89716e-15
2.66665e-13
4.52966e-12
-4.17732e-11
1.0971e-09
7.77577e-08
2.60283e-06
5.39696e-08
3.14816e-05
2.20993e-05
8.65177e-06
-9.36945e-46
-1.61594e-37
-2.13709e-32
-8.51362e-29
-4.38084e-27
4.18259e-25
-1.87445e-25
-8.49294e-24
-7.81437e-24
1.38976e-23
5.13517e-24
-2.8314e-23
-3.48555e-23
-3.38233e-23
-7.61267e-23
3.2006e-23
-2.07775e-23
-6.52593e-24
-1.20353e-23
-9.91424e-24
-5.60431e-23
-7.2067e-23
-3.47151e-23
-3.56395e-23
-1.1597e-22
-2.52485e-22
-1.56466e-22
-2.75135e-22
-3.50835e-22
-2.29816e-22
-3.37183e-22
-5.20561e-22
-6.75044e-22
-6.69301e-22
-5.12401e-22
-1.08286e-22
7.4054e-23
3.9831e-22
1.30371e-22
-1.12034e-22
-9.21499e-22
-1.31789e-21
-1.95549e-21
-2.29323e-21
-1.65001e-21
-9.97153e-22
-4.99427e-22
4.11128e-22
1.00472e-21
1.61267e-21
1.71257e-21
1.58101e-21
1.03055e-21
8.59368e-22
4.9328e-22
2.92897e-22
8.35156e-23
-1.20166e-23
-1.05314e-22
-1.29942e-22
-1.04388e-22
-9.99149e-23
-8.79056e-23
-6.80858e-23
-4.96661e-23
-3.00271e-23
-2.2167e-23
-1.60694e-23
-7.30737e-24
-5.68783e-24
-3.91457e-24
-2.91788e-24
-2.83356e-24
-1.77392e-24
-1.7828e-24
-1.34965e-24
-2.10547e-25
7.77561e-26
5.89521e-25
8.62701e-25
9.21723e-25
6.2293e-25
6.3851e-25
4.42954e-25
2.56533e-25
1.86291e-25
6.77687e-26
3.30674e-26
8.95894e-27
-2.80083e-26
-3.84067e-26
-2.21775e-26
-2.29863e-26
-1.79955e-26
-2.0031e-26
-1.92612e-26
1.31158e-25
-4.20852e-25
1.57273e-21
-7.83942e-20
-4.97772e-62
8.31241e-07
5.84116e-07
2.96159e-05
1.61298e-05
-5.93147e-06
-1.44374e-07
3.21855e-09
-2.28374e-09
-7.49199e-11
2.10178e-13
3.91329e-14
5.78867e-16
2.19115e-18
2.1992e-20
-3.85413e-22
-1.19519e-23
2.4537e-25
1.97773e-27
-1.49e-29
-7.34502e-32
1.86647e-34
2.14765e-36
-1.03394e-38
-4.34657e-41
7.44847e-43
-4.00855e-45
8.94852e-48
3.37326e-50
-6.12219e-52
7.85072e-54
-7.57912e-56
5.8885e-58
-1.38526e-13
-2.18033e-60
3.99313e-11
1.14496e-10
-5.0836e-11
-5.82362e-11
1.09292e-09
2.23169e-09
-4.34742e-09
-1.90324e-08
-1.08127e-08
7.49856e-08
1.33906e-07
-3.71637e-07
-2.5568e-06
-6.89942e-06
-9.9933e-06
3.11108e-06
6.98444e-05
0.000269634
0.000722867
0.00163996
0.00327108
0.00596886
0.010148
0.0160719
0.0241108
0.0350454
0.0476154
0.0628346
0.0808738
0.0989991
0.118818
0.137105
0.153641
0.171436
0.180477
0.188178
0.188868
0.183954
0.177176
0.160523
0.141133
0.119382
0.0951401
0.0689879
0.0434018
0.0190594
-0.00498468
-0.0240365
-0.040506
-0.0561762
-0.0647034
-0.0716676
-0.0744545
-0.074002
-0.0747472
-0.0687677
-0.0637435
-0.0586432
-0.0519026
-0.0455414
-0.0400811
-0.0330534
-0.0287993
-0.023419
-0.0193481
-0.0155699
-0.0122954
-0.00983627
-0.00762052
-0.00583641
-0.00461295
-0.00341182
-0.0025289
-0.00188972
-0.00136273
-0.00101554
-0.000724995
-0.000536679
-0.000445983
-4.69528e-14
7.16052e-13
-6.32491e-13
1.61201e-13
-8.56186e-13
1.31972e-13
-3.42631e-12
-8.52573e-12
-1.42712e-12
9.04373e-12
-2.32887e-11
-7.01924e-13
5.43515e-13
-4.91306e-13
1.70731e-13
-7.18627e-13
6.18906e-13
-4.64944e-14
-3.47635e-13
1.53087e-13
-4.15241e-13
1.09412e-13
-4.18038e-16
-4.07377e-14
-1.43072e-12
-3.87276e-12
5.04178e-11
-9.73206e-09
-5.19884e-07
-7.60168e-06
6.45197e-15
-1.98394e-41
-6.18764e-35
-1.37013e-30
-1.18697e-27
-2.64308e-27
-1.23879e-24
5.642e-24
6.4908e-24
-6.19338e-24
-9.2009e-24
6.00894e-24
3.52484e-23
3.04287e-23
3.76505e-23
3.72745e-23
-4.013e-23
3.60125e-23
-1.1622e-23
-3.13333e-23
2.38735e-23
-3.75985e-23
-6.8465e-23
-6.21418e-23
-1.98829e-22
-3.42824e-23
-1.25747e-22
-2.13804e-22
-2.83359e-23
-3.26858e-22
-5.52194e-22
-4.6777e-22
-6.48581e-22
-8.07216e-22
-8.37425e-22
-4.77091e-22
1.39638e-22
2.63108e-22
3.15107e-22
9.43488e-23
-6.69996e-22
-1.44418e-21
-2.12803e-21
-2.29426e-21
-2.0338e-21
-1.56957e-21
-8.52078e-22
3.86148e-23
6.2461e-22
1.31338e-21
1.59703e-21
1.53367e-21
1.53498e-21
1.03573e-21
7.38783e-22
3.59862e-22
1.91333e-22
-7.71834e-24
-8.44247e-23
-1.11464e-22
-1.44077e-22
-9.76151e-23
-9.28205e-23
-7.63486e-23
-5.35004e-23
-4.53446e-23
-2.65531e-23
-1.81051e-23
-1.57541e-23
-6.04737e-24
-6.28754e-24
-2.86672e-24
-3.73135e-24
-3.28592e-24
-2.56752e-24
-1.8125e-24
-1.07098e-24
-3.75391e-25
1.80524e-25
6.21515e-25
7.49822e-25
1.07818e-24
6.64376e-25
4.64126e-25
4.21559e-25
2.6928e-25
1.62374e-25
6.75947e-26
3.09753e-26
-1.04955e-26
-2.85294e-26
-2.19466e-26
-2.18363e-26
-1.43936e-26
-1.83957e-26
-1.67376e-26
-1.31211e-26
-3.17802e-25
-9.82482e-23
6.33436e-20
-1.56244e-61
2.26339e-48
-1.06009e-10
1.26355e-12
7.38469e-14
8.13919e-16
2.30838e-18
3.76641e-20
-9.72694e-22
-1.89466e-23
4.88248e-25
3.22036e-27
-2.40524e-29
-1.18097e-31
2.73791e-34
3.4573e-36
-1.73322e-38
-7.07363e-41
1.23677e-42
-6.78348e-45
1.4085e-47
5.91583e-50
-1.08234e-51
1.39427e-53
-1.3945e-55
1.16407e-57
-5.57097e-60
4.9431e-11
-5.33561e-11
-3.1088e-10
5.10711e-10
2.25274e-09
-4.48642e-11
-1.35852e-08
-1.68598e-08
4.32065e-08
1.66961e-07
-2.98379e-09
-1.50222e-06
-5.87381e-06
-1.37665e-05
-2.04507e-05
-8.90095e-06
6.31082e-05
0.00026694
0.000735857
0.00163886
0.00317701
0.00561308
0.00927029
0.0142429
0.0210671
0.0288151
0.038544
0.0497046
0.0602189
0.0719987
0.0834969
0.092474
0.102347
0.104728
0.107251
0.104189
0.096031
0.087575
0.0692918
0.0500775
0.0302726
0.00751924
-0.015093
-0.0359414
-0.0568367
-0.0733924
-0.0884973
-0.0995221
-0.107889
-0.111477
-0.113975
-0.112545
-0.107791
-0.103165
-0.0942883
-0.0850939
-0.0767239
-0.0672618
-0.057992
-0.0503463
-0.0418036
-0.0354408
-0.0287263
-0.0237686
-0.0191423
-0.0151319
-0.011973
-0.00929492
-0.00711938
-0.00554708
-0.00410832
-0.00307029
-0.00229127
-0.00165867
-0.00122431
-0.000883417
-0.000649235
-0.000505507
-1.35409e-12
-8.74256e-13
-2.44817e-12
-1.72852e-12
-1.17493e-12
-2.57438e-12
-2.92646e-12
-4.85953e-12
-7.06628e-13
3.63371e-13
-3.83234e-13
8.14429e-15
1.90469e-13
3.23402e-14
-5.95364e-13
4.41574e-13
-3.43254e-13
1.45472e-13
1.46285e-12
1.12239e-11
-5.29371e-11
9.82885e-10
1.04079e-07
4.46176e-06
2.49086e-43
4.65316e-31
6.10245e-28
1.34522e-26
-8.15848e-25
-1.50643e-23
-2.34805e-23
-4.07532e-23
-2.91311e-23
1.65643e-23
-3.16158e-24
-1.75018e-24
6.39877e-23
1.39937e-22
-5.525e-23
5.36616e-23
-3.28461e-23
-1.33598e-24
-1.14367e-23
-1.43447e-23
1.80451e-22
3.03551e-22
2.88959e-22
3.90381e-22
2.02743e-22
-1.61894e-22
3.36616e-22
2.34416e-22
3.10305e-22
9.58286e-22
6.10813e-22
-1.72327e-22
-1.06833e-21
-1.24177e-21
-6.67662e-22
-3.0086e-22
8.55505e-22
1.71349e-21
2.13758e-21
1.85252e-21
9.05132e-22
-4.45187e-22
-1.52855e-21
-2.87357e-21
-3.10199e-21
-2.67836e-21
-2.87833e-21
-1.75276e-21
-1.16507e-21
-4.3489e-22
3.51498e-22
3.90042e-22
5.53313e-22
4.8386e-22
4.44178e-22
3.05929e-22
2.44602e-22
1.74829e-22
4.64867e-23
4.69363e-23
1.60146e-23
-4.07611e-24
-2.77459e-25
-1.35032e-23
-2.72535e-24
4.12119e-25
-3.05511e-24
6.12765e-24
7.76122e-24
5.74634e-24
2.6525e-24
2.72498e-24
1.79368e-24
2.29584e-25
-1.08778e-24
-1.27441e-24
-1.53683e-24
-1.24623e-24
-1.17629e-24
-4.29717e-25
-5.77169e-25
-3.95576e-25
-4.76359e-26
-1.25053e-25
-1.66356e-27
1.1748e-28
3.8903e-26
4.84025e-26
7.65441e-26
7.33531e-26
6.00816e-28
4.58079e-26
1.14234e-26
3.53888e-26
4.43378e-26
-9.65006e-25
9.39211e-24
-1.51751e-20
-8.84813e-15
-5.44635e-17
-1.58758e-19
-2.24334e-21
2.36295e-22
-1.11582e-24
-5.98332e-26
4.00881e-29
2.33789e-30
2.16014e-33
-4.12405e-35
-1.10845e-37
2.55258e-39
-1.2438e-41
3.39846e-45
3.37821e-46
-2.76185e-48
1.98962e-50
-1.86661e-52
1.68145e-54
-1.16531e-56
5.03189e-59
1.59604e-11
1.13571e-11
-2.21029e-10
-9.04907e-11
1.46581e-09
2.19575e-09
-5.87548e-09
-1.94467e-08
1.12232e-09
1.07399e-07
1.6678e-07
-4.84092e-07
-3.22804e-06
-9.45182e-06
-1.77869e-05
-1.86883e-05
1.62123e-05
0.000145636
0.000456698
0.00112509
0.00231079
0.00424864
0.00731241
0.0115769
0.0173912
0.0247757
0.0336424
0.0440059
0.0553081
0.0659901
0.0785305
0.0889428
0.0975479
0.104036
0.106085
0.107392
0.101878
0.0918959
0.0796248
0.0613443
0.0412553
0.0201111
-0.00441466
-0.0253152
-0.0461334
-0.0652216
-0.0813482
-0.0941013
-0.103791
-0.109953
-0.113109
-0.114142
-0.110958
-0.105556
-0.099347
-0.0902312
-0.0810788
-0.0724737
-0.0619595
-0.054169
-0.0460745
-0.0384393
-0.0318239
-0.026131
-0.0215491
-0.0172742
-0.0134156
-0.0106684
-0.00824274
-0.00629781
-0.0047481
-0.00360857
-0.00267223
-0.00196839
-0.00141869
-0.00105024
-0.00076156
-0.000561983
1.09186e-12
8.75275e-13
2.27754e-12
1.52462e-12
2.87236e-12
2.79228e-13
-4.40841e-12
1.08126e-11
-5.64527e-12
-1.73619e-13
6.96146e-14
-1.43762e-13
-4.80036e-13
5.48641e-13
-3.48979e-13
-4.03579e-15
2.04869e-14
-4.48856e-16
-6.74092e-14
-2.90704e-12
-2.37313e-11
2.48475e-10
-1.23859e-08
-7.83538e-07
-1.92235e-05
2.12492e-33
2.10833e-29
4.7356e-27
-1.66489e-25
6.40707e-24
2.24681e-23
3.71017e-23
6.93528e-23
4.06763e-24
5.22555e-24
2.98234e-23
-3.90191e-23
-9.86719e-23
-2.07887e-23
-4.81023e-23
-1.87073e-23
4.60143e-23
6.60044e-23
-9.57621e-23
3.50687e-23
2.72569e-22
3.22386e-22
5.61391e-22
-1.95344e-23
-3.63689e-23
-1.33758e-22
-3.60513e-22
4.31969e-22
1.24791e-21
8.26982e-22
3.27457e-22
-2.81189e-22
-9.61046e-22
-9.81748e-22
-8.41021e-22
3.79649e-22
1.2919e-21
2.09088e-21
2.03068e-21
1.87537e-21
4.53774e-22
-9.92382e-22
-1.63909e-21
-2.41655e-21
-2.43677e-21
-2.80146e-21
-2.02618e-21
-1.11011e-21
-5.11016e-22
5.31062e-23
8.81232e-23
4.1881e-22
4.64838e-22
5.48612e-22
3.01905e-22
3.20261e-22
1.94684e-22
9.70294e-23
5.00911e-23
2.03052e-23
-6.95536e-25
-2.61164e-24
-1.12343e-23
-7.43868e-24
-2.80483e-24
-3.11882e-24
5.31684e-24
6.43046e-24
2.71017e-24
5.74614e-24
3.22031e-24
3.86027e-24
6.58038e-25
-1.20358e-24
-1.69557e-25
-1.06823e-24
-1.12674e-24
-1.13357e-24
-7.296e-25
-7.2289e-25
-2.48825e-25
-6.58486e-26
-1.87727e-25
-3.63508e-26
-8.15592e-26
-1.87298e-26
5.2428e-26
-1.6882e-27
2.31633e-26
-3.47768e-26
1.6111e-26
-6.38468e-27
2.36841e-26
3.22054e-26
5.94728e-26
1.71795e-24
9.58793e-22
-2.17703e-08
5.3006e-12
8.34895e-10
1.79071e-08
-4.53718e-09
9.67648e-15
-1.33188e-11
-1.83432e-13
-4.74087e-14
2.68366e-17
5.14715e-13
2.85884e-39
9.76647e-36
1.86926e-46
1.51147e-44
-9.94994e-40
-5.63692e-39
-9.0506e-39
2.91753e-37
-2.61452e-38
2.10553e-36
-3.91888e-38
4.33087e-36
-2.96879e-38
1.26315e-36
-4.10867e-38
-7.83462e-36
-2.83044e-37
-1.7012e-35
-1.02141e-36
-9.58652e-36
1.10064e-36
9.81181e-35
3.70442e-35
5.25557e-34
2.79208e-34
8.60292e-34
1.29084e-33
-4.67424e-33
4.77629e-33
-3.59168e-32
1.53929e-32
-1.75719e-31
4.07923e-32
-5.5297e-31
1.10362e-31
-1.64556e-30
2.09831e-31
-4.64927e-30
3.21844e-31
-8.54355e-30
3.96579e-31
-1.19037e-29
4.2681e-31
-1.35616e-29
4.17322e-31
-1.34784e-29
3.97472e-31
-1.27772e-29
4.03625e-31
-1.24042e-29
4.26862e-31
-1.29072e-29
4.70827e-31
-1.40251e-29
5.06289e-31
-1.55621e-29
5.13599e-31
-1.6641e-29
4.74317e-31
-1.60856e-29
4.19808e-31
-1.36478e-29
3.97396e-31
-1.25573e-29
3.89927e-31
-1.23032e-29
3.53002e-31
-1.18435e-29
3.11759e-31
-1.06739e-29
2.75728e-31
-9.54875e-30
1.95947e-31
-7.46511e-30
1.29872e-31
-5.01211e-30
7.73981e-32
-3.04258e-30
3.43771e-32
-1.41383e-30
1.23117e-32
-4.96878e-31
2.77111e-33
-9.20328e-32
4.57006e-34
-4.57883e-33
7.42155e-35
6.98714e-34
2.6918e-36
5.21535e-34
-1.96171e-36
1.48515e-34
-2.29427e-37
-9.16576e-38
0
-2.05905e-36
0
0
0
0
0
0
0
0
0
0
0
0
0
0
0
0
0
0
0
0
0
0
0
0
0
0
0
0
0
0
0
0
0
0
0
0
0
0
0
0
0
0
0
0
0
0
0
0
0
0
0
0
0
0
0
0
0
0
0
0
0
0
0
0
0
0
0
0
0
0
0
0
0
0
0
0
0
0
0
0
0
0
0
0
0
0
0
0
0
0
0
0
0
0
0
0
0
0
0
0
0
3.68455e-14
0
0
0
0
0
0
0
0
0
0
0
0
0
0
0
0
0
0
0
0
0
0
0
0
0
0
0
0
0
0
0
0
0
0
0
0
0
0
0
0
0
0
0
0
7.7794e-138
-1.10821e-150
6.1522e-133
6.76264e-133
-1.16581e-130
-1.46232e-130
1.25018e-127
4.26844e-129
-8.71433e-122
-2.013e-122
-2.29133e-118
-2.82423e-118
-4.93951e-117
-4.73106e-119
-6.03182e-112
-7.59318e-112
-3.90817e-112
-4.85316e-112
1.90056e-112
-3.19113e-112
-3.30857e-110
1.00505e-109
4.91961e-108
1.00133e-107
3.90646e-108
2.95389e-107
-6.22043e-107
9.12149e-107
1.46341e-104
2.10277e-104
1.93631e-104
3.12201e-104
1.96525e-103
-4.48755e-103
-1.10404e-100
-6.60066e-103
-2.67686e-98
-3.31749e-98
-3.28734e-97
7.84418e-97
-8.88e-96
-9.21981e-96
-9.37088e-95
-1.01968e-94
-6.16073e-95
-5.95933e-95
-1.0842e-94
2.37746e-94
-6.29304e-94
-4.85988e-94
-6.06176e-93
-6.39117e-93
-4.85667e-93
-3.62605e-93
-1.14414e-91
-1.15021e-91
-1.4552e-91
-1.49974e-91
-9.81149e-92
-9.67411e-92
-1.09697e-91
-3.76543e-92
-2.38272e-91
-2.30758e-91
-2.28479e-91
-2.09807e-91
-6.26404e-91
-5.38758e-91
-4.30776e-91
-3.18541e-91
-4.06632e-91
-2.2893e-92
-5.35135e-90
-6.08034e-90
-6.30569e-90
9.37922e-90
-6.73887e-90
6.24165e-90
-8.01353e-90
2.66058e-90
-6.77676e-90
3.63586e-90
-5.79468e-89
6.78281e-89
-5.76248e-89
3.03324e-89
-4.12217e-88
-3.65748e-88
-3.20855e-88
-2.76202e-88
-2.27878e-88
-1.81263e-88
-7.14516e-88
-5.25525e-88
-9.10661e-88
-7.21942e-88
-1.63161e-87
2.51634e-87
-4.10799e-87
-1.74462e-87
-6.38148e-87
-5.57198e-87
-7.86173e-87
-6.90091e-87
-5.35964e-87
-4.38962e-87
-8.07839e-87
-4.1932e-87
-5.88907e-87
-2.71671e-87
-4.49002e-87
-1.25456e-87
-7.73058e-87
-5.81134e-87
-1.0635e-86
-9.78598e-87
-7.41799e-87
-6.28041e-87
-1.67586e-86
-1.33126e-86
-1.92603e-86
-1.72292e-86
-1.3342e-86
-1.09933e-86
-1.24198e-86
-3.09876e-87
-1.65609e-86
-1.16814e-86
-1.21055e-86
-6.42446e-87
-3.46132e-86
-2.35954e-86
-2.54384e-86
-1.58927e-86
-1.79025e-86
-1.19155e-86
-1.28008e-86
-5.7663e-87
-1.51985e-86
-9.30351e-87
-1.58332e-86
-8.353e-87
-1.85156e-86
-1.12707e-86
-3.24745e-86
-6.36091e-87
-2.42114e-86
-3.20426e-87
-1.96673e-86
-2.27721e-87
-4.19754e-86
-2.48268e-86
-3.08434e-86
-1.64386e-86
-2.25871e-86
-1.2595e-86
-2.95125e-86
-1.55939e-86
-2.79588e-86
-1.61581e-86
-2.21315e-86
-6.47977e-87
-1.60559e-86
-5.84899e-87
-1.89736e-86
-1.40549e-86
-1.55025e-86
-8.27486e-88
-3.32264e-86
-3.56977e-86
-1.99625e-86
-2.92493e-86
-1.02104e-86
-2.56838e-86
-2.0211e-87
-2.47234e-86
4.76817e-88
-3.28992e-86
1.20382e-86
-4.34609e-86
2.15633e-86
-3.02535e-86
2.62855e-86
-1.1651e-86
3.12073e-86
6.13562e-87
6.56508e-87
5.64399e-86
-2.67117e-86
1.01972e-85
-9.43229e-86
1.29829e-85
-9.08996e-86
5.79446e-86
-1.96609e-85
1.24529e-85
-2.36229e-85
2.92063e-85
-2.02793e-85
2.05598e-85
-2.78041e-85
4.82654e-85
-4.26986e-85
7.77477e-85
-1.01478e-84
1.36237e-84
-1.40726e-84
1.8476e-84
-2.67623e-84
2.5444e-84
-3.73591e-84
3.11474e-84
-3.83263e-84
2.65396e-84
-4.15967e-84
3.51947e-84
-4.88505e-84
2.37522e-84
-5.16438e-84
2.88896e-84
-5.68677e-84
1.21251e-84
-5.10092e-84
2.12014e-84
-4.33748e-84
2.00696e-84
-4.07804e-84
2.55522e-84
-3.70682e-84
2.80058e-84
-3.77847e-84
3.50654e-84
-5.35472e-84
2.6974e-84
-5.28199e-84
4.01386e-84
-5.9657e-84
4.10796e-84
-5.72137e-84
4.01768e-84
-7.13774e-84
3.02529e-84
-6.70612e-84
4.234e-84
-6.72191e-84
3.92936e-84
-7.74148e-84
4.74966e-84
-7.21116e-84
4.35267e-84
-8.80025e-84
8.08482e-84
-1.1468e-83
9.58232e-84
-1.38569e-83
8.19517e-84
-1.34691e-83
7.3141e-84
-1.49039e-83
9.82121e-84
-1.56306e-83
9.82447e-84
-1.59285e-83
8.2599e-84
-1.40313e-83
9.1934e-84
-1.62144e-83
9.61594e-84
-1.62494e-83
1.19156e-83
-1.54104e-83
7.97687e-84
-1.4899e-83
8.47803e-84
-1.43398e-83
8.34239e-84
-1.28227e-83
5.74061e-84
-1.09876e-83
4.78294e-84
-8.53851e-84
4.18584e-84
-7.04018e-84
3.49763e-84
-5.90723e-84
3.00315e-84
-4.93877e-84
1.56031e-84
-3.16861e-84
1.73511e-84
-2.35066e-84
9.83749e-85
-1.55507e-84
1.11036e-84
-4.81112e-85
1.15423e-84
-2.20864e-85
3.21391e-85
9.5929e-85
-6.71747e-87
1.41524e-84
-2.20078e-85
1.43599e-84
-3.27016e-85
1.49147e-84
-7.2095e-85
1.54554e-84
-2.24009e-85
1.35509e-84
-4.35051e-85
1.50296e-84
-5.6355e-85
1.58563e-84
-4.14346e-85
6.52841e-83
-5.34962e-84
-4.86828e-82
-1.70362e-81
9.00474e-81
-1.54176e-80
2.76437e-80
6.19698e-80
2.09884e-79
-7.85569e-79
-8.37622e-78
7.08772e-78
1.3523e-76
-6.7115e-77
5.11848e-74
7.59339e-75
-1.63998e-72
-4.17142e-73
1.25973e-71
4.37157e-71
1.0764e-70
8.60616e-71
-5.51593e-70
9.83979e-70
8.40034e-68
2.97628e-68
-5.7638e-68
6.24362e-67
1.47193e-65
-1.00784e-65
4.95426e-64
2.33895e-64
5.2292e-63
6.28231e-63
3.95165e-62
-1.13166e-61
-1.24105e-63
2.19218e-12
-1.18442e-07
-5.08604e-06
2.48368e-05
3.76993e-05
-8.05696e-06
-4.18384e-09
1.78871e-08
-8.19624e-09
6.58666e-14
9.90554e-13
6.55193e-16
1.18363e-18
3.48012e-20
-9.59995e-22
-1.84302e-23
4.6628e-25
3.19861e-27
-2.01533e-29
-1.0813e-31
1.82003e-34
3.32548e-36
-1.40531e-38
-8.1208e-41
1.2218e-42
-6.21795e-45
1.06749e-47
8.07592e-50
-1.25531e-51
1.62931e-53
-1.52439e-55
1.21052e-57
-5.21724e-60
-3.34695e-61
3.50245e-11
-8.07675e-14
1.24428e-11
-2.63017e-10
-1.20009e-10
1.10653e-09
9.10791e-10
-6.38428e-09
-1.55271e-08
4.16939e-09
7.6595e-08
6.62082e-08
-5.34955e-07
-2.59619e-06
-6.60497e-06
-1.05448e-05
-5.78159e-06
2.86355e-05
0.000131412
0.000357999
0.000812498
0.00156279
0.00266702
0.00437369
0.00646205
0.00918516
0.0122799
0.0153871
0.0186952
0.0213075
0.0222816
0.023978
0.0228437
0.0202055
0.0157619
0.00909945
0.00283885
-0.00661525
-0.0170124
-0.026462
-0.0363892
-0.0459229
-0.052586
-0.0580356
-0.0607312
-0.0619149
-0.060282
-0.0584584
-0.0524995
-0.0477077
-0.0418262
-0.0348023
-0.0305941
-0.0246361
-0.0193479
-0.0151844
-0.0102795
-0.00706857
-0.00490021
-0.00144603
-0.000853549
0.000392881
0.00118221
0.00148911
0.00166141
0.0012982
0.00115975
0.00128281
0.00101596
0.000828772
0.000680794
0.000587904
0.000435565
0.000345007
0.000285834
0.000245364
0.000176048
0.000113179
5.88366e-05
-1.16158e-12
-0.000325155
1.10555e-11
4.19776e-13
-1.10393e-12
-1.78973e-12
-2.43171e-12
-1.52446e-14
-2.51821e-12
-1.7092e-12
3.55587e-12
-1.47308e-13
2.14134e-13
-3.18692e-13
-2.37309e-11
6.59446e-14
-7.96869e-14
-8.80996e-14
2.00148e-17
2.30122e-13
-1.93557e-13
-1.63375e-14
5.01784e-13
-5.21697e-13
3.00994e-13
-1.47598e-13
1.36919e-13
-6.37306e-14
1.46735e-13
-4.0342e-13
1.1218e-13
-2.95133e-12
8.34681e-12
-8.45024e-11
-4.48435e-12
2.76045e-12
2.9218e-12
3.9897e-12
-9.77027e-13
-7.39401e-14
1.18509e-12
-2.50858e-13
1.07928e-12
1.48005e-12
2.21773e-13
9.52317e-13
-3.63569e-12
-4.94313e-13
-5.55658e-12
-5.31008e-12
-7.89236e-13
-3.17164e-12
1.60487e-12
3.07863e-13
1.71142e-12
5.91785e-12
8.10408e-12
3.85689e-12
-5.31637e-12
1.55064e-12
3.17986e-12
4.64174e-12
9.90438e-12
1.1753e-11
5.8776e-12
1.24416e-11
1.14099e-12
1.60715e-11
-4.19109e-11
-6.75498e-13
-4.97471e-11
-2.39372e-11
-3.76811e-11
-9.87956e-12
3.02651e-11
2.35197e-11
9.64136e-11
1.12898e-10
1.4059e-10
2.14355e-10
4.73797e-11
2.40455e-10
-1.8495e-10
1.6535e-10
-4.43408e-10
1.01972e-11
-5.97338e-10
-1.29868e-11
-3.61526e-10
2.14874e-10
2.35336e-10
8.79069e-10
8.69548e-10
1.99476e-09
1.00447e-09
3.23761e-09