/*--------------------------------*- C++ -*----------------------------------*\
  =========                 |
  \\      /  F ield         | OpenFOAM: The Open Source CFD Toolbox
   \\    /   O peration     | Website:  https://openfoam.org
    \\  /    A nd           | Version:  7
     \\/     M anipulation  |
\*---------------------------------------------------------------------------*/
FoamFile
{
    version     2.0;
    format      ascii;
    class       volScalarField;
    location    "0.42";
    object      T;
}
// * * * * * * * * * * * * * * * * * * * * * * * * * * * * * * * * * * * * * //

dimensions      [0 0 0 1 0 0 0];

internalField   nonuniform List<scalar> 
46572
(
0
0
0
0
0
0
0
0
0
0
0
0
0
0
0
0
0
0
0
0
0
0
0
0
0
0
0
0
0
0
0
0
0
0
0
0
0
0
0
0
0
0
0
0
0
0
0
0
0
0
0
0
0
0
0
0
0
0
0
0
0
0
0
0
0
0
0
0
0
0
0
0
0
0
0
0
0
0
0
0
0
0
0
0
0
0
0
0
0
0
0
0
0
0
0
0
0
0
0
0
0
0
0
0
0
0
0
0
0
0
0
0
0
0
0
0
0
0
0
0
0
0
0
0
0
0
0
0
0
0
0
0
0
0
0
0
0
0
0
0
0
0
0
0
0
0
0
0
0
0
0
0
0
0
0
0
0
0
0
0
0
0
0
0
0
0
0
0
0
0
0
0
0
0
0
0
0
0
0
0
0
0
0
0
0
0
0
0
0
0
0
0
0
0
0
0
0
0
0
0
0
0
0
0
0
0
0
0
0
0
0
0
0
0
0
0
0
0
0
0
0
0
0
0
0
0
0
0
0
0
0
0
0
0
0
0
0
0
0
0
0
0
0
0
0
0
0
0
0
0
0
0
0
0
0
0
0
0
0
0
0
0
0
0
0
0
0
0
0
0
0
0
0
0
0
0
0
0
0
0
0
0
0
0
0
0
0
0
0
0
0
0
0
1.75746e-142
0
-5.28302e-139
-6.64188e-139
-3.4589e-139
-4.41167e-139
-3.41538e-138
1.12745e-137
-1.57457e-135
-1.95693e-135
6.2518e-135
4.5974e-135
7.14701e-133
1.70295e-133
5.57439e-132
-8.75768e-132
4.50676e-130
4.25129e-130
8.74496e-129
6.84969e-129
6.15992e-129
4.9311e-129
9.42311e-129
4.11515e-129
1.26719e-126
1.4373e-126
8.49904e-127
8.39942e-127
5.96261e-127
4.48768e-127
-1.35252e-126
1.90491e-126
-1.40349e-125
-4.86785e-125
8.3634e-122
-3.36647e-122
1.79307e-121
-7.60775e-122
1.66663e-119
1.09814e-119
4.28074e-119
4.50716e-119
2.76536e-119
2.77556e-119
5.45749e-119
-1.07266e-118
3.57895e-118
1.77907e-118
8.67816e-118
3.39644e-118
2.46374e-117
5.06603e-118
2.62966e-117
-1.103e-117
1.69638e-116
1.63729e-116
1.12539e-116
1.07175e-116
8.1301e-117
4.63479e-117
1.10702e-116
1.01169e-116
7.58171e-117
6.75751e-117
6.0555e-117
1.6785e-117
3.75353e-116
4.14964e-116
3.06183e-116
4.37831e-116
-1.9071e-115
7.70088e-115
-1.37455e-114
1.74118e-115
-1.97364e-114
-8.36538e-115
-3.40817e-114
2.23568e-114
-7.26058e-114
1.1451e-113
-4.68745e-113
-4.58615e-113
-8.91214e-113
1.74947e-112
-1.8517e-112
-1.21142e-113
-1.38227e-112
-2.71444e-113
-1.53256e-112
2.75341e-112
-8.22869e-112
2.77228e-111
-7.48475e-111
-4.95031e-112
-4.37543e-110
-3.69367e-110
-1.41335e-109
-1.03576e-109
-1.0178e-109
-7.17575e-110
-7.43544e-110
-4.53407e-110
-2.53259e-109
-9.54076e-110
-4.39681e-109
-3.9646e-109
-2.94042e-109
-2.50292e-109
-2.84457e-109
1.11365e-109
-5.92514e-109
-1.76522e-109
-5.85739e-109
6.94223e-111
-5.07852e-109
7.50248e-110
-7.851e-109
1.18187e-108
-1.06078e-107
-5.74582e-108
-1.07245e-106
-2.06364e-107
-8.27326e-107
-1.91511e-107
-6.46712e-107
-1.69513e-107
-5.15006e-107
-1.07548e-107
-2.73165e-106
-7.95247e-107
-5.20236e-106
-4.46476e-106
-3.49525e-106
-2.79655e-106
-3.44938e-106
1.66385e-106
-7.98772e-106
-1.01718e-106
-9.91972e-106
-5.47885e-106
-1.13449e-105
-2.09891e-106
-1.48452e-105
1.9966e-105
-2.42916e-105
4.36789e-107
-5.68068e-105
-6.70617e-107
-4.51023e-105
-7.8678e-106
-5.78735e-105
-4.04305e-105
-4.14456e-105
-2.77327e-105
-3.31725e-105
-1.11408e-105
-1.50987e-104
-1.31457e-104
-1.00608e-104
-7.98931e-105
-1.14883e-104
1.05484e-104
-2.49214e-104
-1.50275e-105
-2.89296e-104
-1.49481e-104
-2.65424e-104
-1.2107e-104
-2.37099e-104
5.47892e-105
-2.7881e-104
-5.52716e-105
-2.8605e-104
1.77244e-104
-3.32952e-104
-5.19633e-105
-3.27182e-104
-1.6293e-104
-2.46586e-104
-9.50131e-105
-2.18336e-104
-1.1945e-104
-2.37496e-104
-1.51042e-104
-6.07666e-104
8.07968e-104
-1.80579e-103
-1.05507e-103
-1.55868e-103
8.62287e-105
-1.29347e-103
-2.52631e-105
-4.88566e-103
-7.94156e-104
-8.49426e-103
-6.80268e-103
-5.79664e-103
-4.3685e-103
-4.59166e-103
-1.23845e-103
-5.87498e-103
-2.89116e-103
-8.40036e-103
-2.44671e-103
-1.86192e-102
-2.70151e-103
-1.79887e-102
9.32975e-103
-1.51052e-102
3.55682e-103
-1.39822e-102
7.86452e-103
-1.21574e-102
4.00026e-103
-2.14193e-102
-1.71768e-103
-1.71712e-102
-3.49377e-103
-4.88835e-102
-1.43257e-102
-8.05868e-102
-6.64463e-102
-5.46069e-102
-4.24424e-102
-4.43785e-102
-6.89821e-103
-5.96894e-102
-2.02409e-102
-6.09119e-102
-3.78108e-102
-4.99083e-102
-2.43543e-102
-4.2969e-102
-6.02269e-103
-8.55782e-102
-6.77806e-102
-5.95928e-102
-4.49596e-102
-5.14006e-102
-3.95102e-102
-8.00679e-102
-6.32067e-102
-5.53282e-102
-4.32551e-102
-3.99963e-102
-2.37122e-102
-7.96274e-102
-7.36075e-102
-5.26408e-102
-4.7004e-102
-3.9146e-102
-1.87732e-102
-3.92619e-102
-2.0996e-102
-3.54756e-102
-2.47759e-102
-2.64777e-102
-1.77468e-102
-2.06962e-102
-8.98177e-103
-3.24673e-102
-3.01425e-102
-2.37394e-102
-1.29389e-102
-2.32923e-102
-1.44506e-102
-1.76345e-102
-1.15708e-102
-1.26728e-102
-7.83234e-103
-9.0676e-103
-5.2115e-103
-1.28171e-102
-9.68017e-103
-2.59628e-102
-8.85638e-103
-1.95595e-102
-6.35508e-103
1.28329e-100
-1.91009e-102
-1.58535e-97
6.29616e-98
4.44942e-96
-8.12988e-96
1.68159e-93
1.61292e-93
-8.16977e-93
-3.9394e-92
1.61614e-90
-5.08654e-90
-6.94786e-90
5.02451e-90
9.11146e-87
-1.58455e-87
-1.003e-83
1.31915e-84
-1.80737e-81
-7.30006e-82
-5.96649e-80
-6.26232e-80
-2.75679e-79
-2.83784e-80
-1.44192e-77
-8.59196e-14
-4.00702e-14
2.65163e-16
-4.23315e-19
-9.44957e-20
3.09793e-22
-8.5236e-24
4.84992e-26
6.20421e-29
-2.41023e-30
8.79556e-32
-8.17145e-34
7.76593e-36
-1.56307e-38
-2.94003e-40
3.31876e-42
-2.0602e-44
8.51418e-47
-1.31622e-49
-3.10512e-52
-9.69561e-54
6.76318e-56
6.22414e-58
-8.07122e-60
7.1518e-63
9.5996e-65
7.81935e-67
2.67512e-69
-1.88196e-71
-5.93175e-74
-1.01359e-13
-0.000248333
0.000764523
0.00402605
0.0111943
0.023978
0.0432952
0.0673197
0.0968571
0.127469
0.15648
0.180192
0.198758
0.206678
0.203113
0.188265
0.165841
0.133193
0.0964701
0.0565909
0.0188353
-0.0149535
-0.0432286
-0.0589869
-0.0725296
-0.0762802
-0.073923
-0.0685514
-0.0617803
-0.0524085
-0.0429613
-0.033713
-0.0270977
-0.0209225
-0.0154537
-0.011225
-0.00813217
-0.00588452
-0.00410998
-0.00276617
-0.00189085
-0.00124818
-0.00081901
-0.000531852
-0.000329694
-0.000213771
-0.000134943
-8.33901e-05
-5.18565e-05
-3.17456e-05
-1.89358e-05
-1.12475e-05
-6.75276e-06
-4.06162e-06
-2.37511e-06
-1.35482e-06
-7.88847e-07
-4.47185e-07
-2.51579e-07
-1.42345e-07
-7.73774e-08
-4.39101e-08
-2.43437e-08
-1.32824e-08
-7.23092e-09
-3.96659e-09
-2.18006e-09
-1.17704e-09
-6.14349e-10
-3.3212e-10
-1.74734e-10
-9.09091e-11
-4.7254e-11
-2.49006e-11
-1.2782e-11
-6.57487e-12
-3.32261e-12
-1.72606e-12
-8.76302e-13
-4.56463e-13
-1.85455e-13
-1.1728e-13
-2.97491e-07
4.79385e-07
-8.68482e-07
2.08208e-06
-2.00488e-06
-5.85773e-06
1.10706e-05
1.19959e-05
-8.06924e-05
-0.000279195
-0.000312899
-0.000476844
5.30862e-07
-6.21567e-07
-3.87933e-07
-3.98333e-07
-3.95299e-07
-3.94705e-07
-3.91601e-07
-2.53131e-07
-9.04003e-07
3.9485e-07
-4.61444e-07
-7.97953e-07
-1.31019e-06
9.27621e-07
8.21158e-07
-1.60688e-06
-1.40047e-07
-1.72071e-06
-1.58454e-06
-9.99509e-08
-7.60272e-07
2.16539e-06
1.00925e-06
2.18268e-06
2.72336e-06
-1.75108e-06
9.27441e-07
-6.6384e-06
-3.0741e-06
-1.04464e-05
-8.0381e-06
-6.28471e-06
-9.11089e-06
3.63471e-06
-4.211e-06
1.57505e-05
4.184e-06
2.11402e-05
1.19499e-05
9.97408e-06
5.71779e-06
-2.19969e-05
-3.04048e-05
-6.99613e-05
-0.000112398
-0.000145388
-0.000222642
-0.000137504
-0.000369514
-0.000115145
-0.00037136
0.000112183
-0.000456224
0.000644489
-0.000402793
0.00167569
-0.000167846
0.00340457
0.000391799
0.00598239
0.00138084
0.00964416
0.00288479
0.0144543
0.00515717
0.020878
0.00796648
0.0284718
0.0119326
0.0374534
0.016311
0.0477907
0.0212929
0.0593696
0.0275178
0.0717525
0.0340413
0.0858976
0.0413107
0.0996558
0.0489078
0.112858
0.0552749
0.127404
0.062305
0.139354
0.067753
0.150668
0.0715673
0.162296
0.075428
0.169108
0.077476
0.177626
0.0784569
0.18382
0.0804805
0.186096
0.0788982
0.186931
0.0745156
0.183649
0.0692522
0.180476
0.0619418
0.172483
0.0540177
0.162366
0.0421632
0.15078
0.0318482
0.136378
0.0182785
0.12084
0.00386299
0.104088
-0.0095102
0.0860647
-0.023493
0.0686046
-0.0387183
0.0497184
-0.0520077
0.0312504
-0.0652406
0.0140794
-0.0779016
-0.00191691
-0.0885585
-0.0160174
-0.0990654
-0.0302825
-0.106467
-0.0402026
-0.113014
-0.0530254
-0.117488
-0.058896
-0.120349
-0.0642724
-0.121026
-0.07015
-0.121412
-0.0737393
-0.120093
-0.0734674
-0.116718
-0.0759837
-0.113004
-0.0734807
-0.107448
-0.0700062
-0.101304
-0.0681855
-0.0953782
-0.0631605
-0.0877764
-0.0596451
-0.0816717
-0.0565783
-0.0758131
-0.0522142
-0.0692619
-0.0478886
-0.0627513
-0.0428467
-0.0562386
-0.0389965
-0.0505413
-0.0352599
-0.045093
-0.0308267
-0.0396019
-0.0277821
-0.0350487
-0.0240096
-0.0303948
-0.0207786
-0.0262507
-0.0183148
-0.0228044
-0.0154147
-0.0193639
-0.0133617
-0.0166947
-0.0116076
-0.014423
-0.00990927
-0.0122777
-0.00842557
-0.0104004
-0.00707997
-0.00874085
-0.00595899
-0.00736734
-0.00501773
-0.00617407
-0.0041451
-0.00511661
-0.00351719
-0.00428355
-0.00286408
-0.00351323
-0.00234761
-0.00287824
-0.00195062
-0.00238229
-0.00161051
-0.00196087
-0.00129527
-0.00158633
-0.00106888
-0.00129906
-0.000867888
-0.00105399
-0.000702796
-0.000852908
-0.000563475
-0.00068585
-0.000454528
-0.0005532
-0.000366746
-0.000445166
-0.000291466
-0.000354417
-0.000236397
-0.00028504
-0.000184832
-0.000224279
-0.000145388
-0.000176617
-0.000116192
-0.000140697
-9.23401e-05
-0.000111631
-7.1696e-05
-8.70686e-05
-5.70727e-05
-6.89462e-05
-4.40919e-05
-5.34848e-05
-3.41574e-05
-4.14888e-05
-2.69183e-05
-3.24999e-05
-2.04648e-05
-2.48734e-05
-1.60009e-05
-1.94216e-05
-1.25472e-05
-1.52191e-05
-9.71578e-06
-1.17843e-05
-7.51123e-06
-9.10046e-06
-5.74273e-06
-6.97505e-06
-4.43401e-06
-5.3882e-06
-3.42747e-06
-4.15288e-06
-2.58334e-06
-3.14739e-06
-2.00517e-06
-2.42479e-06
-1.50658e-06
-1.83112e-06
-1.13884e-06
-1.38519e-06
-8.74818e-07
-1.06226e-06
-6.63242e-07
-8.05639e-07
-4.95487e-07
-6.03687e-07
-3.78477e-07
-4.59688e-07
-2.85652e-07
-3.47055e-07
-2.15602e-07
-2.61713e-07
-1.61433e-07
-1.96375e-07
-1.21401e-07
-1.47777e-07
-9.14802e-08
-1.11157e-07
-6.79331e-08
-8.27109e-08
-5.14151e-08
-6.23655e-08
-3.78633e-08
-4.60812e-08
-2.8018e-08
-3.41226e-08
-2.1006e-08
-2.55404e-08
-1.57023e-08
-1.90765e-08
-1.14981e-08
-1.40182e-08
-8.59681e-09
-1.04554e-08
-6.34907e-09
-7.72537e-09
-4.68886e-09
-5.70324e-09
-3.4439e-09
-4.1926e-09
-2.53504e-09
-3.09184e-09
-1.87036e-09
-2.27734e-09
-1.35684e-09
-1.65392e-09
-9.8203e-10
-1.19739e-09
-7.25602e-10
-8.8425e-10
-5.32805e-10
-6.49391e-10
-3.91959e-10
-4.77749e-10
-2.87758e-10
-3.50411e-10
-2.06876e-10
-2.52723e-10
-1.52251e-10
-1.85312e-10
-1.09294e-10
-1.33254e-10
-7.84857e-11
-9.59137e-11
-5.72418e-11
-6.97759e-11
-4.05917e-11
-4.96036e-11
-2.94829e-11
-3.60254e-11
-2.1502e-11
-2.62624e-11
-1.55188e-11
-1.89675e-11
-1.11959e-11
-1.36792e-11
-8.03798e-12
-9.83306e-12
-5.78475e-12
-7.08206e-12
-4.17584e-12
-5.10094e-12
-2.9582e-12
-3.62329e-12
-2.14421e-12
-2.62011e-12
-1.52911e-12
-1.87126e-12
-1.09727e-12
-1.34085e-12
-7.91261e-13
-9.63305e-13
-5.5876e-13
-6.78797e-13
-3.83429e-13
-4.68862e-13
-2.75354e-13
-3.39539e-13
-2.16409e-13
-1.43488e-13
-2.56116e-13
5.58753e-34
-1.42983e-32
1.84596e-29
-1.54785e-27
1.87837e-25
-1.13025e-22
2.72806e-21
-2.46388e-19
8.36379e-17
2.12512e-15
-3.44831e-15
7.00998e-15
-1.86283e-14
0
0
0
0
0
0
0
0
3.43831e-36
-4.70506e-33
1.27895e-31
-6.58706e-30
5.99648e-29
3.97792e-28
2.27735e-27
4.898e-27
4.37257e-28
-4.25186e-26
-6.5702e-26
-4.50391e-26
1.03696e-26
-5.74464e-26
-1.31478e-26
1.97912e-26
5.59838e-26
7.83819e-26
8.52648e-26
5.8097e-26
-3.37261e-26
-5.77199e-26
-5.04982e-26
-5.44327e-26
-4.59124e-26
-4.23986e-26
-3.4064e-26
-2.28149e-26
-6.43769e-27
-3.45874e-27
1.4845e-27
1.59826e-27
1.72312e-27
1.65941e-27
1.29069e-27
1.07718e-27
6.80953e-28
4.02737e-28
-1.96446e-29
-2.88672e-28
-4.25807e-28
-3.22462e-28
-9.84234e-29
1.05244e-28
2.21548e-28
2.39995e-28
1.8275e-28
1.26836e-28
7.32104e-29
2.14206e-29
3.06597e-30
-2.71523e-30
-1.15084e-29
-7.98812e-30
-6.08075e-30
-4.7154e-30
-3.95463e-30
-2.5658e-30
-1.71237e-30
-1.20875e-30
-4.972e-31
-3.22704e-31
-6.30241e-32
-1.96308e-32
2.22494e-32
4.60902e-32
3.95468e-32
3.10808e-32
2.73603e-32
1.82829e-32
1.26065e-32
8.13761e-33
4.86935e-33
2.03729e-33
1.18482e-33
5.43931e-34
1.57512e-34
6.10083e-35
-3.42315e-35
-2.22945e-35
-1.04449e-35
-1.99925e-35
-1.35107e-35
-1.05962e-35
-5.8701e-36
-3.24823e-36
-1.87848e-36
-1.03761e-36
-5.92726e-37
-2.50145e-37
-5.0299e-38
8.57048e-35
-1.78383e-77
-2.41372e-17
-1.84553e-17
-7.29341e-16
7.12293e-16
5.82834e-16
-2.99796e-18
5.98199e-19
2.52477e-21
3.56569e-23
-9.65797e-26
2.62958e-27
-8.5244e-29
9.29452e-31
-8.73026e-33
3.15563e-37
1.80635e-37
-1.74498e-39
6.52531e-42
8.13335e-45
-3.52499e-46
3.55276e-48
-1.35336e-50
-3.39109e-53
-5.48666e-55
1.32938e-56
-4.5386e-59
-3.64429e-61
1.55303e-63
7.02035e-66
6.62735e-68
-7.50991e-71
-1.35646e-72
-2.78655e-07
-1.53947e-75
4.16384e-05
0.0020092
0.00703479
0.016871
0.0324547
0.0545733
0.0815039
0.110928
0.140532
0.170302
0.189062
0.201608
0.20628
0.19722
0.179162
0.150607
0.1159
0.075624
0.0366614
0.0014588
-0.0280934
-0.0496773
-0.066444
-0.0723545
-0.0737916
-0.0732086
-0.0642098
-0.0554153
-0.0469375
-0.0374391
-0.0303866
-0.023478
-0.0175475
-0.0134495
-0.00957686
-0.00693748
-0.00483568
-0.00329529
-0.00230416
-0.0015026
-0.00098439
-0.000651836
-0.00041526
-0.000266562
-0.00017101
-0.000104413
-6.66058e-05
-4.00599e-05
-2.39873e-05
-1.48334e-05
-8.72858e-06
-5.24734e-06
-3.06085e-06
-1.75651e-06
-1.0399e-06
-5.81562e-07
-3.28957e-07
-1.87185e-07
-1.04188e-07
-5.82412e-08
-3.29253e-08
-1.76871e-08
-9.95969e-09
-5.35558e-09
-2.94322e-09
-1.58195e-09
-8.3445e-10
-4.51078e-10
-2.37317e-10
-1.24065e-10
-6.65088e-11
-3.41216e-11
-1.75444e-11
-9.06808e-12
-4.5928e-12
-2.39114e-12
-1.20995e-12
-6.26556e-13
-3.46328e-13
1.18362e-07
8.93384e-07
-1.02256e-06
5.83179e-07
4.9905e-07
-5.82434e-06
-4.58004e-07
1.88212e-05
-2.1396e-05
-0.000176772
-0.000369074
-2.09365e-07
-5.02857e-07
-3.95795e-07
-4.21551e-07
-4.10878e-07
-4.2333e-07
-4.91945e-07
-4.07099e-07
-2.7605e-07
8.48135e-26
1.57958e-07
-2.97276e-31
-1.24528e-28
-3.92082e-26
1.38045e-23
-9.19657e-23
-4.69221e-21
-2.88396e-18
-1.0411e-15
3.21455e-29
0
0
0
0
0
0
0
4.60432e-37
-3.09329e-35
-9.77643e-33
2.89131e-30
-1.26067e-29
7.97416e-29
3.23272e-27
-4.01118e-28
-6.18239e-28
-2.88347e-26
-3.17633e-26
-2.81794e-26
-3.21041e-26
-3.61167e-26
-7.78756e-26
-7.56833e-27
5.71544e-26
9.40025e-26
1.0772e-25
9.60871e-26
1.08191e-26
-4.17094e-26
-4.58218e-26
-6.24063e-26
-4.50214e-26
-4.35294e-26
-3.69324e-26
-2.5246e-26
-1.95079e-26
-5.52643e-27
-2.37523e-27
1.90068e-27
1.60659e-27
1.67313e-27
1.5589e-27
1.18759e-27
9.02472e-28
6.26861e-28
2.00888e-28
-2.02356e-28
-4.64183e-28
-4.55058e-28
-2.68765e-28
-3.14125e-30
1.98146e-28
2.07279e-28
2.54319e-28
1.44142e-28
1.08293e-28
5.19355e-29
1.44067e-29
2.21884e-31
-5.46698e-30
-9.31628e-30
-6.47071e-30
-5.24585e-30
-3.91206e-30
-3.6377e-30
-2.14236e-30
-1.38555e-30
-1.03791e-30
-3.72668e-31
-3.01812e-31
-8.56892e-33
-5.65508e-33
2.15763e-32
3.64808e-32
3.16618e-32
2.81234e-32
2.16775e-32
1.51077e-32
9.91853e-33
5.98805e-33
3.95571e-33
1.62391e-33
7.05379e-34
4.20429e-34
1.2976e-34
3.75552e-35
-2.03491e-35
-1.41908e-35
-8.85574e-36
-1.44138e-35
-1.00987e-35
-7.9705e-36
-4.35346e-36
-2.50062e-36
-1.40544e-36
-7.94156e-37
-4.52011e-37
-1.7825e-37
1.38405e-36
-7.16397e-77
0
1.04013e-22
-3.47725e-25
6.80946e-27
-1.65274e-28
1.75364e-30
-1.50967e-32
-2.44046e-35
4.2783e-37
-3.0616e-39
5.46814e-42
5.94391e-44
-8.59485e-46
7.60765e-48
-2.41003e-50
-6.13515e-53
-1.29015e-54
2.65935e-56
-8.23419e-59
-7.42101e-61
2.93751e-63
1.39302e-65
1.35221e-67
-1.23372e-70
-2.87702e-72
-4.19563e-75
-8.6219e-05
0.00183013
0.00637982
0.0144454
0.0261564
0.0402358
0.0561407
0.070696
0.0846358
0.0886777
0.0892647
0.0831299
0.0657043
0.0455792
0.0189135
-0.012261
-0.0412254
-0.0707135
-0.0960766
-0.114638
-0.124921
-0.129376
-0.126418
-0.117444
-0.10742
-0.0918626
-0.0774163
-0.0638992
-0.0504426
-0.0398153
-0.0305786
-0.0227005
-0.01702
-0.0121121
-0.00873805
-0.00609864
-0.00415238
-0.00287262
-0.0018868
-0.00123632
-0.000810343
-0.000518308
-0.000329735
-0.000211117
-0.000129644
-8.18961e-05
-4.95401e-05
-2.96965e-05
-1.82272e-05
-1.07337e-05
-6.46005e-06
-3.78145e-06
-2.17424e-06
-1.28141e-06
-7.20535e-07
-4.06726e-07
-2.31342e-07
-1.29088e-07
-7.19401e-08
-4.06166e-08
-2.19332e-08
-1.22696e-08
-6.59903e-09
-3.63236e-09
-1.95582e-09
-1.03474e-09
-5.57387e-10
-2.93818e-10
-1.53759e-10
-8.21221e-11
-4.21579e-11
-2.17559e-11
-1.12545e-11
-5.71279e-12
-2.96498e-12
-1.5051e-12
-7.77409e-13
-4.21778e-13
-3.29513e-07
-1.64185e-07
2.05414e-06
-2.9792e-06
-3.56838e-06
1.65972e-05
1.39478e-05
-0.00011196
-3.43848e-07
-9.78289e-08
-2.74054e-08
-5.24564e-08
-6.05689e-08
-6.4289e-08
-4.38046e-08
6.52064e-08
-4.39461e-07
2.12341e-07
3.61928e-07
5.31525e-25
-2.83543e-22
5.91896e-21
-5.42586e-19
1.44379e-16
0
0
0
0
0
0
5.75539e-37
-6.10416e-36
-8.40714e-33
-9.62252e-30
3.39063e-29
-1.33107e-28
3.06875e-27
2.3575e-27
-2.82461e-28
1.39431e-25
4.77322e-26
2.42709e-25
-8.47119e-27
2.41976e-25
5.53602e-26
-2.56683e-26
-1.22941e-25
-8.1661e-26
-4.8785e-26
-3.55693e-26
1.27675e-25
4.01959e-26
3.42962e-26
4.79282e-26
4.00014e-26
3.29579e-26
2.78695e-26
1.4561e-26
-1.69502e-27
4.27743e-27
-4.26827e-28
1.10577e-27
-1.3009e-28
-4.01867e-28
1.45189e-28
-2.44583e-28
-2.10847e-28
-7.17406e-29
3.6835e-28
5.79175e-28
5.80311e-28
4.51613e-29
-1.62072e-28
-2.574e-28
-1.90102e-28
-2.47457e-28
-8.2603e-29
-7.82548e-29
-1.80748e-31
1.59957e-29
-5.00932e-30
-1.32929e-29
2.31009e-30
-4.76739e-30
-9.9931e-31
4.22565e-32
7.83576e-31
6.60735e-32
4.39837e-31
5.06753e-31
3.55023e-33
3.39347e-31
1.60004e-31
1.65181e-31
-4.51987e-33
2.09948e-32
2.54154e-32
1.88665e-33
-3.33199e-35
4.04699e-33
1.50557e-34
5.82429e-34
3.56716e-34
8.27337e-34
-3.30392e-34
-3.54728e-34
-2.28145e-35
-1.45188e-34
-7.30441e-35
-8.06123e-35
-4.94993e-35
-1.29401e-35
-1.87523e-35
-9.76828e-36
-5.51305e-36
-3.25674e-36
-1.43981e-36
-9.26788e-37
-5.52756e-37
-1.8796e-37
-1.29777e-37
-2.10335e-36
3.42121e-28
-8.12612e-30
2.08904e-31
-1.75953e-33
1.49093e-35
-2.07088e-38
-6.37477e-40
6.59131e-42
-4.08466e-44
1.61672e-46
-2.01297e-49
-5.34172e-52
-1.98123e-53
1.17344e-55
1.42455e-57
-1.57398e-59
1.14821e-62
1.75611e-64
1.51302e-66
5.8069e-69
-3.76938e-71
-1.37015e-73
-0.000436587
0.000674299
0.0036833
0.00999236
0.0198513
0.032756
0.0485058
0.0640247
0.0778451
0.08729
0.0912956
0.0878713
0.0768225
0.0564495
0.0342712
0.00518768
-0.0264752
-0.0567682
-0.0841886
-0.106595
-0.120995
-0.127551
-0.129342
-0.123237
-0.112947
-0.0992412
-0.0855396
-0.0708575
-0.0572964
-0.0446924
-0.0351522
-0.0267122
-0.0196855
-0.0142879
-0.0102963
-0.0073815
-0.00510813
-0.00345879
-0.00235122
-0.00154874
-0.00100852
-0.000656811
-0.000409796
-0.000264357
-0.000166378
-0.000103067
-6.38867e-05
-3.89435e-05
-2.32924e-05
-1.38882e-05
-8.32523e-06
-4.99568e-06
-2.91255e-06
-1.67088e-06
-9.7078e-07
-5.48996e-07
-3.09098e-07
-1.75231e-07
-9.5737e-08
-5.41781e-08
-3.00227e-08
-1.64145e-08
-8.94247e-09
-4.89227e-09
-2.69072e-09
-1.44791e-09
-7.59237e-10
-4.09576e-10
-2.1553e-10
-1.1255e-10
-5.84148e-11
-3.07345e-11
-1.5788e-11
-8.13007e-12
-4.11823e-12
-2.13659e-12
-1.08671e-12
-5.64265e-13
9.40165e-07
-7.27823e-07
1.87984e-06
8.16115e-07
-4.38245e-06
6.74339e-06
2.37367e-05
-3.00215e-05
-0.000227524
-8.24883e-09
-4.00624e-08
-3.93898e-08
-6.55301e-08
-7.30733e-08
-1.49881e-07
4.41967e-08
-1.38862e-07
-3.72239e-31
-3.25088e-28
-6.17265e-26
3.02716e-23
9.29921e-23
-2.29995e-20
-3.92356e-18
-2.44599e-15
0
0
0
0
0
0
-1.32414e-35
-4.84759e-33
1.12111e-31
3.62083e-29
8.02313e-29
-1.28384e-28
1.71308e-27
-1.981e-28
-3.32959e-26
1.28514e-25
1.28814e-25
4.46725e-26
9.06209e-26
2.28818e-25
-3.95273e-26
-9.97582e-26
-8.38033e-26
-9.88521e-26
-3.13276e-27
1.41279e-25
6.30003e-27
4.0603e-26
8.51773e-26
3.91337e-26
3.56397e-26
2.07436e-26
1.26088e-26
4.04346e-27
9.77554e-27
-4.93502e-28
6.82543e-28
3.12905e-28
-6.88508e-28
-3.14805e-29
-1.27891e-28
-6.98739e-29
-5.24215e-28
1.41261e-28
4.25501e-28
7.2183e-28
2.19734e-28
-1.4635e-28
-3.76575e-28
-2.78909e-28
-4.84657e-29
-1.21541e-28
-6.357e-29
-7.168e-29
2.7884e-29
-1.63264e-29
-9.27429e-30
3.39845e-30
-4.47496e-30
-2.32267e-30
6.33499e-31
6.22624e-31
7.36693e-31
8.96652e-32
4.48563e-31
1.47544e-31
3.57307e-31
2.46402e-31
1.29226e-31
1.04927e-31
3.12081e-32
5.07626e-32
7.94443e-33
-7.11395e-33
9.81108e-33
3.27944e-34
5.26503e-34
7.75281e-34
7.5945e-34
-3.11527e-34
-1.06352e-34
-5.36754e-35
-2.01735e-34
-7.57611e-35
-1.13031e-34
-6.64194e-35
-2.28085e-35
-2.63054e-35
-1.31864e-35
-7.03487e-36
-4.24694e-36
-1.68618e-36
-1.16319e-36
-6.45805e-37
-2.96852e-37
-9.04858e-38
-1.15806e-37
1.48986e-18
-1.78011e-23
5.47326e-22
-1.93146e-19
3.23525e-21
5.2935e-08
-0.000534007
3.58555e-07
-2.49665e-07
-1.62578e-32
-3.97772e-27
0
0
0
0
0
0
0
0
0
0
0
0
0
0
0
0
0
0
0
0
0
0
0
0
0
0
0
0
0
0
0
0
0
0
0
0
0
0
0
0
0
0
0
0
0
0
0
0
0
0
0
0
0
0
0
0
0
0
0
0
0
0
0
0
0
0
0
0
0
0
0
0
0
0
0
0
0
0
0
0
0
0
0
0
0
0
0
0
0
0
0
0
0
0
0
0
0
0
0
0
0
0
0
0
0
0
0
0
0
0
0
0
0
0
0
0
0
0
0
0
0
0
0
0
0
0
0
0
0
0
0
0
0
0
0
0
0
0
0
0
0
0
0
0
0
0
0
0
0
0
0
0
0
0
0
0
0
0
0
0
0
0
0
0
0
0
0
0
0
0
0
0
0
0
0
0
0
0
0
0
0
0
0
0
0
0
0
0
0
0
0
0
0
0
0
0
0
1.15303e-07
0
0
0
0
0
0
0
0
0
0
0
0
0
0
0
0
0
0
0
0
0
0
0
0
0
0
0
0
0
0
0
0
0
0
0
0
0
0
0
0
0
0
0
0
0
0
0
0
0
0
0
0
0
0
0
0
0
0
0
0
0
0
0
0
0
0
0
0
0
0
0
0
0
0
0
0
0
0
0
0
0
0
0
0
0
0
0
0
0
0
0
0
-6.53996e-141
-1.80515e-140
-2.43917e-137
-3.07031e-137
-4.64368e-137
-2.16687e-137
-1.24583e-133
-1.56874e-133
-3.4394e-133
-4.24206e-133
6.48147e-133
-8.98603e-133
3.37472e-130
-8.67333e-131
4.99072e-129
5.02039e-129
1.65456e-128
2.94748e-129
8.55542e-127
5.55194e-127
6.28117e-127
2.26284e-127
9.29852e-127
-3.04837e-127
9.60842e-125
1.16968e-124
1.72551e-124
-4.62509e-124
2.40972e-124
-4.02988e-124
-1.15333e-123
-3.25508e-125
-7.76197e-122
-3.13203e-121
3.06924e-119
-3.38836e-119
4.75641e-119
-2.9215e-119
2.17701e-117
2.04813e-117
2.06086e-117
1.41889e-117
1.88193e-117
4.35974e-118
3.27699e-116
2.28089e-116
5.1307e-116
4.05978e-116
1.37172e-115
-2.81597e-115
4.14622e-115
1.89273e-115
6.66384e-115
6.0636e-115
8.36862e-115
7.65963e-115
5.65552e-115
4.92602e-115
8.95683e-115
5.22385e-115
6.42388e-115
3.46495e-115
4.83203e-115
1.6457e-115
9.55965e-115
7.87371e-115
1.51199e-114
1.84828e-114
-1.41626e-114
5.91693e-114
-9.24593e-113
-3.7945e-113
-1.81761e-112
-9.99926e-113
-1.74204e-112
9.35691e-113
-7.32753e-112
1.01707e-111
-2.17856e-111
-1.01656e-111
-1.98244e-111
-2.34908e-112
-2.87907e-110
-1.69512e-110
-2.32293e-110
-8.03287e-111
-1.52086e-110
-7.75974e-111
-5.81677e-110
1.84279e-109
-4.07884e-109
-7.77202e-110
-9.17016e-109
-1.79119e-109
-1.91461e-108
-1.03352e-108
-7.98462e-108
-1.79612e-108
-6.07964e-108
-4.13194e-109
-5.23597e-108
-6.83301e-110
-2.39789e-107
-1.72079e-107
-1.78334e-107
-1.07236e-107
-1.36534e-107
-6.92492e-108
-5.15775e-107
-2.55233e-107
-6.53704e-107
-3.51366e-107
-8.35693e-107
7.93313e-107
-8.38344e-107
6.94069e-107
-2.24163e-106
-1.38038e-106
-7.8122e-106
1.87892e-105
-1.13065e-104
-7.8831e-105
-8.38548e-105
-2.75217e-105
-6.46726e-105
-1.22146e-105
-5.33545e-105
-4.61896e-106
-2.55036e-104
-1.8528e-104
-2.13049e-104
-1.33127e-104
-1.63916e-104
-7.86119e-105
-5.61222e-104
-2.56203e-104
-8.61464e-104
-5.49267e-104
-6.79106e-104
-1.81113e-104
-1.17187e-103
5.14262e-104
-3.42474e-103
-2.13633e-103
-2.79475e-103
-1.00411e-103
-6.36243e-103
-6.21762e-103
-4.3354e-103
-3.29061e-103
-2.99631e-103
-2.0212e-103
-2.26944e-103
-5.64381e-104
-2.60656e-103
-1.34673e-103
-5.79888e-103
-3.87506e-103
-4.67005e-103
-1.73149e-103
-2.19322e-102
-1.25632e-102
-2.6888e-102
-1.86905e-102
-1.94313e-102
-1.20972e-102
-1.94736e-102
-2.01007e-103
-3.12411e-102
-2.25888e-102
-2.6997e-102
-2.24783e-103
-4.68976e-102
-3.91234e-102
-3.25014e-102
-2.48504e-102
-2.23205e-102
-1.57902e-102
-1.91722e-102
-9.99109e-103
-1.40678e-102
-4.84094e-103
-1.53697e-102
1.00022e-102
-1.25941e-101
-7.98696e-102
-1.05407e-101
5.31807e-103
-1.68961e-101
-7.40848e-102
-1.33711e-101
-2.94907e-102
-4.32789e-101
-2.82016e-101
-3.32972e-101
-2.06149e-101
-2.43743e-101
-1.48348e-101
-3.6984e-101
-2.20306e-101
-3.77499e-101
-2.57229e-101
-6.68298e-101
9.98974e-101
-1.66291e-100
-6.32372e-101
-2.5132e-100
-2.01232e-100
-1.79648e-100
-1.26817e-100
-2.04746e-100
-1.63862e-100
-1.55198e-100
-7.85575e-101
-2.08338e-100
-1.60375e-100
-1.48125e-100
-9.06871e-101
-3.84351e-100
-2.83621e-100
-3.01907e-100
-1.99757e-100
-2.21559e-100
-1.35069e-100
-3.97595e-100
-2.34064e-100
-4.56189e-100
-3.30497e-100
-3.25261e-100
-2.13111e-100
-3.19993e-100
-3.47101e-101
-3.84734e-100
-2.41293e-100
-3.48506e-100
-1.00343e-100
-2.54334e-100
-8.58396e-101
-2.11407e-100
-2.57688e-101
-3.21324e-100
-2.25947e-100
-2.21293e-100
-1.37757e-100
-2.12673e-100
-1.50389e-100
-2.39163e-100
-2.11104e-100
-1.64865e-100
-1.3554e-100
-2.5142e-100
-1.89969e-100
-2.39865e-100
-1.89806e-100
-1.68595e-100
-1.29142e-100
-1.31918e-100
-5.30002e-101
-1.38672e-100
-9.86069e-101
-9.76727e-101
-5.6265e-101
-1.40872e-100
-7.30572e-101
-1.26623e-100
-8.04426e-101
-8.92712e-101
-6.09068e-101
-6.90655e-101
-5.00917e-101
-5.26119e-101
-3.60988e-101
-5.6823e-101
3.1759e-101
-1.96194e-100
-1.33024e-100
-1.50714e-100
-5.09954e-101
8.57989e-99
1.82216e-100
-2.75507e-95
4.61017e-96
-2.50545e-93
-2.83539e-93
1.12984e-91
9.15368e-92
1.08843e-89
-1.25063e-89
1.55316e-87
3.09232e-88
2.70773e-87
1.45696e-86
4.81873e-85
8.02342e-85
-2.71406e-82
6.44696e-83
-4.4363e-80
-1.88681e-80
-1.62266e-78
-1.96089e-78
-3.01296e-78
-6.45923e-77
-1.03866e-78
-2.01282e-23
-3.63973e-18
6.54008e-16
-1.7532e-15
-8.30272e-15
1.20762e-15
2.94142e-21
-2.14541e-19
2.03202e-21
8.50002e-27
4.73147e-08
-1.85268e-28
2.00189e-30
-1.6386e-32
-2.9252e-35
4.77468e-37
-3.52299e-39
6.74669e-42
5.69939e-44
-8.84991e-46
8.2837e-48
-2.62384e-50
-7.70275e-53
-1.45212e-54
3.06808e-56
-9.829e-59
-8.2382e-61
3.29017e-63
1.60899e-65
1.56688e-67
-1.4665e-70
-3.15659e-72
-4.16656e-75
-1.86697e-76
9.93225e-06
2.63689e-07
0.001056
0.00309355
0.00625555
0.0096797
0.0123598
0.0143015
0.0135891
0.0107079
0.00566617
-0.000542935
-0.00894792
-0.0178305
-0.027324
-0.0345818
-0.0396234
-0.0440255
-0.0454135
-0.0427931
-0.0406501
-0.0350336
-0.0273603
-0.0226842
-0.0163973
-0.0116355
-0.00688582
-0.00427113
-0.00223744
-0.000315476
0.0012361
0.000982468
0.000989866
0.000871985
0.000815387
0.00069533
0.000437273
0.0003338
0.000233725
0.000166872
0.000116656
7.78834e-05
4.99558e-05
4.15162e-05
2.41747e-05
1.65661e-05
1.03565e-05
6.17033e-06
3.76298e-06
2.16121e-06
1.37244e-06
8.4352e-07
4.28049e-07
2.48996e-07
1.33802e-07
7.79526e-08
4.33763e-08
2.28012e-08
1.20456e-08
8.38841e-09
4.00127e-09
2.40284e-09
1.30185e-09
7.03195e-10
4.04696e-10
1.8472e-10
8.4674e-11
5.30821e-11
2.51944e-11
1.19635e-11
5.15519e-12
3.10992e-12
1.34938e-12
5.67784e-13
3.69267e-13
2.44106e-13
1.09447e-13
3.46369e-14
-8.29419e-15
-2.06567e-07
-2.34301e-13
6.15125e-25
2.02349e-07
-5.56345e-08
1.61519e-07
-5.63084e-07
-1.09187e-06
7.10274e-06
7.4383e-07
-7.72187e-05
-5.91755e-08
1.3256e-07
2.44976e-07
-0.000205622
2.61291e-07
8.60129e-08
5.21774e-08
-1.55644e-32
2.0222e-07
1.99587e-07
1.97899e-07
1.88655e-07
1.65293e-07
4.69235e-07
-1.37428e-07
7.65548e-08
-7.49886e-08
2.58642e-08
8.73148e-26
1.92482e-26
-0.000174144
-0.000316731
1.23261e-22
-4.08822e-23
1.61964e-06
6.77732e-07
1.33196e-06
-3.88582e-08
4.47032e-07
-2.68572e-07
1.28879e-07
-3.49509e-07
5.95881e-08
2.25723e-07
6.62763e-07
-2.11612e-07
1.4051e-06
-7.11295e-07
1.54182e-06
-2.18681e-06
1.43116e-06
-1.9833e-06
8.31329e-07
9.2568e-07
3.31185e-06
5.18786e-06
8.07016e-06
8.83021e-06
1.55179e-05
3.87311e-06
2.24827e-05
-1.91679e-05
2.332e-05
-6.52336e-05
1.08358e-05
-0.000123212
-2.17259e-05
-0.000180362
-9.24966e-05
-0.000194215
-0.000179107
-0.000168477
-0.000223561
-3.11895e-05
-0.000273978
0.000282369
-0.000247591
0.000801286
-0.000142494
0.00156521
4.69584e-05
0.00262966
0.00031676
0.0038602
0.000754943
0.0053383
0.0011846
0.00688623
0.00156369
0.00838513
0.00215741
0.00969764
0.00227485
0.0107761
0.00202456
0.0119982
0.00192512
0.0127773
0.00145337
0.0132836
0.000734286
0.0126808
3.52841e-05
0.011943
-0.00214516
0.0102104
-0.0030528
0.00775874
-0.0054961
0.00549813
-0.00814162
0.00225376
-0.00973086
-0.00057661
-0.0131215
-0.00259983
-0.0150242
-0.00583158
-0.0161372
-0.00967895
-0.0182135
-0.0135383
-0.0200342
-0.0170356
-0.0219129
-0.0210988
-0.0232295
-0.0252728
-0.0244039
-0.0278691
-0.0254917
-0.0316437
-0.0258672
-0.0340844
-0.0259186
-0.035727
-0.0251854
-0.0375469
-0.0244836
-0.0383994
-0.023559
-0.038366
-0.0209678
-0.0378785
-0.0195672
-0.0370949
-0.0169887
-0.034771
-0.0143801
-0.0330382
-0.0108668
-0.0304398
-0.00821531
-0.0273302
-0.00569802
-0.0252348
-0.00147735
-0.0217719
-0.00123953
-0.0179538
0.00230174
-0.0159991
0.00577397
-0.0137234
0.0060813
-0.0103642
0.00718342
-0.00896138
0.0100239
-0.00602451
0.00899296
-0.00345143
0.0106286
-0.00219781
0.0119073
-0.00015399
0.0110618
0.000155266
0.0124916
-0.0002808
0.0111656
0.000497349
0.00941756
0.00126289
0.00931752
0.00199356
0.00889865
0.00189634
0.00884288
0.00199216
0.00766975
0.00235128
0.00694749
0.00191076
0.0067274
0.00216068
0.0055264
0.00220238
0.00515884
0.00194896
0.00476053
0.00193533
0.00396834
0.00159242
0.00377162
0.00118859
0.00306987
0.00109357
0.00242038
0.00101165
0.00214712
0.000939182
0.00185878
0.000786622
0.00163916
0.000691839
0.00135288
0.000643789
0.00116983
0.000491121
0.00102653
0.000451111
0.000796026
0.000392521
0.000684736
0.000299951
0.000588839
0.000248219
0.000454988
0.000218912
0.000372667
0.000168893
0.000318052
0.000143345
0.000246226
0.000121647
0.000206262
0.000103342
0.000169426
8.14954e-05
0.000141254
6.70903e-05
0.000110936
5.75219e-05
9.15338e-05
4.25688e-05
7.61682e-05
3.63376e-05
5.6727e-05
2.96794e-05
4.63406e-05
2.18956e-05
3.79566e-05
1.73893e-05
2.82816e-05
1.443e-05
2.23441e-05
1.04832e-05
1.82367e-05
8.8034e-06
1.3498e-05