/*--------------------------------*- C++ -*----------------------------------*\
  =========                 |
  \\      /  F ield         | OpenFOAM: The Open Source CFD Toolbox
   \\    /   O peration     | Website:  https://openfoam.org
    \\  /    A nd           | Version:  7
     \\/     M anipulation  |
\*---------------------------------------------------------------------------*/
FoamFile
{
    version     2.0;
    format      ascii;
    class       volScalarField;
    location    "0.46";
    object      T;
}
// * * * * * * * * * * * * * * * * * * * * * * * * * * * * * * * * * * * * * //

dimensions      [0 0 0 1 0 0 0];

internalField   nonuniform List<scalar> 
45544
(
0
0
0
0
0
0
0
0
0
0
0
0
0
0
0
0
0
0
0
0
0
0
0
0
0
0
0
0
0
0
0
0
0
0
0
0
0
0
0
0
0
0
0
0
0
0
0
0
0
0
0
0
0
0
0
0
0
0
0
0
0
0
0
0
0
0
0
0
0
0
0
0
0
0
0
0
0
0
0
0
0
0
0
0
0
0
0
0
0
0
0
0
0
0
0
0
0
0
0
0
0
0
0
0
0
0
0
0
0
0
0
0
0
0
0
0
0
0
0
0
0
0
0
0
0
0
0
0
0
0
0
0
0
0
0
0
0
0
0
0
0
0
0
0
0
0
0
0
0
0
0
0
0
0
0
0
0
0
0
0
0
0
0
0
0
0
0
0
0
0
0
0
0
0
0
0
0
0
0
0
0
0
0
0
0
0
0
0
0
0
0
0
0
0
0
0
0
0
0
0
0
0
0
0
0
0
0
-1.93835e-37
-1.24573e-32
-6.93669e-31
-1.10338e-28
1.90241e-28
1.6832e-27
5.33283e-27
-1.4835e-27
-1.72044e-26
-2.1954e-26
-1.81103e-26
5.15836e-27
1.76916e-26
-6.22499e-27
2.02989e-26
-5.9662e-26
-4.38268e-25
6.81934e-24
-2.96411e-24
-1.44868e-23
-2.55114e-24
-3.23249e-23
-2.76996e-23
-3.38162e-23
-2.58136e-25
-2.73461e-23
2.41273e-23
7.52535e-23
-7.36266e-23
-6.6643e-23
-7.5568e-23
9.70099e-23
-3.16549e-23
-2.57255e-22
-4.81086e-22
-6.31249e-22
-1.91635e-22
7.92082e-24
1.6313e-22
2.70928e-22
3.5468e-22
5.14391e-22
5.22762e-22
4.45468e-22
1.52729e-22
1.60073e-22
1.13833e-23
2.92483e-24
-3.56745e-23
-5.99828e-23
-6.74293e-23
-5.88718e-23
-3.34994e-23
-2.73685e-23
-2.03043e-23
-1.07921e-23
-5.29179e-24
4.28648e-25
7.41602e-25
1.0532e-24
1.28105e-24
9.62727e-25
6.4001e-25
4.13027e-25
2.55605e-25
1.21029e-25
7.18514e-26
4.10951e-26
5.66072e-27
-2.00364e-27
-3.89124e-27
-4.04823e-27
-3.74625e-27
-2.98078e-27
-1.93263e-27
-1.21762e-27
-6.81883e-28
-4.10332e-28
-1.9929e-28
-1.18728e-28
-6.83876e-29
-2.28512e-29
-9.93624e-30
-6.74618e-31
-5.20031e-31
6.82323e-32
1.77161e-31
2.74929e-31
3.11578e-31
2.38565e-31
-4.06121e-31
2.12983e-27
0
0
0
0
0
0
0
0
0
0
0
0
0
0
0
0
0
0
0
0
0
0
0
0
0
0
0
0
0
0
0
0
0
0
0
0
0
0
0
0
0
0
0
0
0
0
0
0
0
0
0
0
0
0
0
0
0
0
0
0
0
0
0
0
0
0
0
0
0
0
0
0
0
0
0
0
0
0
2.20778e-120
1.41294e-120
2.40884e-118
2.3557e-118
4.08339e-117
-1.12356e-116
2.57362e-116
-1.30614e-115
-6.41833e-113
-2.0431e-113
-3.40517e-109
-4.23216e-109
-3.4325e-109
-4.2753e-109
-2.20108e-109
-2.74103e-109
-1.49313e-109
-1.76481e-109
-4.59194e-108
-5.57217e-108
-2.84671e-108
-3.36579e-108
-8.74962e-108
2.22088e-107
-2.03887e-106
-2.07e-106
-2.42213e-106
-2.69575e-106
-3.29336e-106
-3.36303e-106
-2.45387e-106
-1.59389e-106
-2.26524e-105
-2.73725e-105
-4.61591e-105
-5.66564e-105
-3.0555e-105
-3.73214e-105
-7.37184e-105
-1.50839e-105
-4.15255e-102
-4.92709e-102
-2.83879e-102
-2.53529e-102
8.23609e-103
-1.15307e-102
4.74313e-100
9.28641e-100
-2.94081e-98
1.4466e-97
-2.89562e-96
1.15664e-96
-1.77624e-95
7.81936e-96
-2.94779e-93
-2.41982e-93
-8.49186e-93
-9.4562e-93
-5.45787e-93
-5.94003e-93
-9.79651e-93
1.72921e-92
-7.84022e-92
-6.12377e-92
-1.0294e-91
-7.60601e-92
-1.15547e-91
-6.97805e-93
-1.03132e-89
1.57655e-90
-7.4302e-88
-6.28892e-88
-5.18877e-88
-3.16166e-88
-7.16123e-88
1.30289e-87
-4.34597e-87
-3.19802e-87
-5.47598e-87
6.00973e-88
2.75944e-85
1.60832e-86
1.48897e-83
1.12928e-83
1.21851e-83
1.28116e-83
-9.52944e-84
6.90345e-83
6.44411e-84
2.23811e-82
-4.06405e-83
2.50251e-82
-3.15053e-82
7.98008e-82
-8.36179e-82
1.41862e-81
-2.47017e-81
-1.24877e-81
-3.61054e-81
5.26497e-81
-6.1229e-81
1.7948e-81
-4.95767e-81
6.65824e-82
-4.43714e-81
2.51528e-81
-8.15157e-81
1.78866e-80
-4.19043e-80
1.1976e-80
-2.02561e-79
-1.31133e-79
-4.76001e-79
-2.60754e-79
-3.59111e-79
-1.88156e-79
-2.68023e-79
-1.15484e-79
-5.18956e-79
-5.18918e-80
-8.67962e-79
-6.12907e-79
-5.6783e-79
-2.8476e-79
-1.2433e-78
2.48017e-78
-4.16147e-78
1.28363e-78
-4.47191e-78
3.16955e-78
-4.59286e-78
2.75042e-78
-5.25759e-78
5.45363e-78
-2.40926e-77
-4.64566e-78
-9.27486e-77
2.79816e-77
-7.82598e-77
1.54979e-77
-6.5845e-77
8.8954e-78
-5.51688e-77
8.25665e-78
-1.69658e-76
2.0483e-77
-3.00359e-76
-1.88039e-76
-2.10679e-76
-1.12699e-76
-1.89392e-76
3.35212e-77
-2.82637e-76
-2.17962e-77
-2.9544e-76
-1.06118e-76
-3.15745e-76
-2.62944e-77
-3.12088e-76
1.67314e-76
-3.79477e-76
5.98726e-77
-5.82797e-76
4.01648e-76
-5.12583e-76
1.48884e-76
-5.90238e-76
-2.12846e-76
-4.46771e-76
-1.91082e-76
-3.47492e-76
-1.0515e-76
-6.15396e-76
-4.42969e-76
-4.17293e-76
-2.66071e-76
-3.49624e-76
-1.68439e-77
-3.64232e-76
9.41614e-79
-3.31735e-76
-4.66608e-77
-2.8566e-76
9.17501e-78
-2.61758e-76
8.86453e-77
-2.3026e-76
1.16814e-76
-2.31575e-76
1.11823e-76
-1.78168e-76
9.54526e-77
-1.42199e-76
8.05383e-77
-1.31581e-76
6.85387e-77
-1.10689e-76
5.44679e-77
-9.19213e-77
4.93522e-77
-1.04431e-76
1.15055e-76
-6.56399e-77
1.18408e-76
-8.30773e-77
1.0204e-76
-8.08399e-77
6.95735e-77
-5.2659e-77
1.4651e-76
7.36749e-80
1.65577e-76
-2.04512e-77
1.14729e-76
-4.15041e-77
8.87324e-77
-3.52748e-77
7.24311e-77
-3.8332e-77
6.91591e-77
-2.99651e-77
7.4837e-77
-3.86653e-77
5.59564e-77
-3.65762e-77
3.39013e-77
-3.47202e-77
2.54674e-77
-3.16043e-77
1.47256e-77
-2.0234e-77
2.36121e-77
-1.9308e-77
1.20323e-77
-4.90942e-78
2.96366e-77
1.60723e-77
4.67112e-77
7.40653e-78
3.19357e-77
3.3602e-78
1.27512e-77
1.95944e-77
2.4139e-77
2.30992e-77
3.04235e-77
2.30139e-77
1.96591e-77
2.04016e-77
2.62285e-78
6.56579e-77
6.04098e-77
4.46375e-77
3.95285e-77
4.75272e-77
3.76794e-77
4.6356e-77
4.30656e-77
3.13647e-77
2.88229e-77
2.32086e-77
1.43313e-77
6.31298e-77
5.98605e-77
4.16233e-77
3.84557e-77
3.15011e-77
1.29803e-77
3.51341e-77
2.00673e-77
3.09261e-77
2.30783e-77
2.35133e-77
1.79684e-77
1.71233e-77
1.15905e-77
2.14791e-77
2.1226e-77
1.45771e-77
1.19241e-77
1.2635e-77
1.08331e-77
8.71086e-78
7.61237e-78
5.8902e-78
5.11883e-78
3.99047e-78
3.44438e-78
3.68575e-78
3.73261e-78
-1.9312e-77
-5.67524e-77
1.62177e-73
-4.21632e-75
6.16641e-71
1.95922e-71
3.73109e-69
-4.08471e-69
-3.86733e-67
-8.69984e-67
-3.87309e-67
-7.82383e-67
-2.3734e-67
-5.82702e-67
-7.94134e-66
-3.35828e-66
2.24684e-63
6.40385e-64
7.85525e-61
4.99606e-61
3.85133e-59
3.38992e-59
3.59409e-59
-9.53297e-58
4.38169e-58
-3.38931e-58
2.2002e-56
-7.16601e-57
-5.03353e-54
-6.59943e-26
-1.53694e-24
3.79877e-22
-1.99508e-20
-6.79529e-19
1.06399e-17
4.3503e-16
4.26355e-15
1.90497e-14
5.11072e-14
8.94691e-14
1.19846e-13
1.35645e-13
1.41986e-13
1.45029e-13
1.47994e-13
1.51273e-13
1.47813e-13
1.30249e-13
1.00271e-13
6.72656e-14
3.94982e-14
2.00108e-14
9.05336e-15
3.53745e-15
1.21781e-15
3.79946e-16
9.66102e-17
1.85851e-17
2.37627e-18
1.30594e-19
-4.33759e-21
-7.61698e-22
1.09239e-23
2.04627e-24
-7.68558e-26
-4.24519e-28
1.01369e-28
-3.59424e-30
8.86238e-32
-1.61459e-33
3.58854e-35
-6.49401e-37
1.59973e-40
3.04794e-40
-3.1264e-42
-6.31285e-44
-1.72349e-46
-5.96774e-50
4.43102e-07
-3.28147e-07
2.69829e-07
-6.80319e-08
-4.71852e-07
4.73963e-07
3.73266e-07
-1.38866e-07
2.86289e-07
-8.00399e-07
-3.59992e-07
-1.16625e-06
-8.9193e-07
-2.64709e-07
-7.65213e-07
8.18394e-07
4.15361e-07
1.05597e-06
1.05087e-06
-4.53302e-07
8.87982e-07
-3.50714e-06
-1.56949e-06
-5.23842e-06
-4.30249e-06
-4.33386e-06
-5.65378e-06
1.53259e-06
-4.29968e-06
1.17435e-05
-3.69634e-07
2.05659e-05
3.51908e-06
1.35691e-05
3.15904e-06
-1.42368e-05
-2.59435e-06
-5.6536e-05
-3.73416e-05
-2.54438e-08
-0.000149069
-0.000107679
-0.000235806
-0.000296973
-0.000160796
-0.000268592
-0.000112155
-0.000178647
-0.000227687
-0.000244718
-0.000228396
-0.000317627
-0.000143262
-0.000253154
-0.000141215
-0.000192946
-0.000115661
-0.000184387
-0.00014861
-0.000190446
-0.000206604
-0.000246065
-0.000194777
-0.000271641
-0.000147587
-0.000232579
-0.000140112
-0.000197974
-0.000174473
-0.000228921
-0.000165746
-0.000226959
-0.000167253
-0.000241166
-0.000129191
-0.000217706
-0.000121052
-0.000177397
-6.36566e-08
1.32937e-07
1.30835e-07
-3.27808e-07
9.91787e-07
-8.78146e-07
-3.65394e-06
3.87972e-06
9.36186e-06
-5.1762e-05
-1.62523e-07
8.35893e-08
1.14068e-07
8.52322e-08
9.03144e-08
9.37781e-08
1.1522e-07
2.77931e-08
1.29435e-07
-9.21178e-08
5.06453e-28
0
0
0
0
0
0
0
5.13292e-48
2.89868e-34
6.68581e-33
6.04408e-30
9.16092e-29
-4.96291e-28
-1.5979e-28
-3.1932e-27
-5.25794e-27
-1.26605e-26
-1.38993e-26
-8.1607e-27
3.23827e-27
6.29471e-27
-2.5689e-26
5.24695e-26
-3.39465e-25
9.40087e-25
-4.46983e-24
1.05945e-23
3.13937e-24
9.71504e-24
1.39877e-23
6.72862e-25
2.66182e-23
-1.14074e-23
-2.12041e-23
-1.5956e-23
-7.79664e-23
-1.87415e-23
-4.01487e-23
-1.38211e-23
-8.76964e-24
-2.57613e-22
-4.97829e-22
-5.88398e-22
-4.9641e-22
-2.23491e-22
-7.94317e-23
2.27606e-22
2.04636e-22
4.03322e-22
4.52601e-22
4.19879e-22
4.13899e-22
1.63085e-22
1.50238e-22
-1.00229e-23
-5.13621e-24
-5.13185e-23
-6.75926e-23
-5.82811e-23
-5.50515e-23
-2.94273e-23
-2.41206e-23
-1.50923e-23
-6.70753e-24
-3.42409e-24
4.75473e-25
8.36626e-25
1.28373e-24
1.09569e-24
9.20755e-25
4.91299e-25
3.6768e-25
2.10696e-25
1.10288e-25
5.53666e-26
2.87374e-26
6.10465e-28
-2.97148e-27
-4.18446e-27
-4.11188e-27
-3.45087e-27
-2.38447e-27
-1.50655e-27
-9.83977e-28
-5.48054e-28
-3.20714e-28
-1.65363e-28
-8.97574e-29
-5.18961e-29
-1.89775e-29
-6.81225e-30
-6.44245e-31
-7.26729e-32
1.54663e-31
2.95563e-31
3.74107e-31
2.79674e-31
2.6807e-31
0
-4.02012e-29
0
-8.45555e-26
9.40512e-25
-6.29493e-54
1.74301e-24
-6.02353e-23
2.29201e-21
-1.73817e-19
-5.16563e-19
9.23591e-17
1.46865e-15
9.87225e-15
3.27159e-14
7.00907e-14
1.06318e-13
1.29005e-13
1.39706e-13
1.43691e-13
1.46139e-13
1.5006e-13
1.50685e-13
1.40903e-13
1.16124e-13
8.371e-14
5.25578e-14
2.88996e-14
1.37593e-14
5.75464e-15
2.11925e-15
6.96262e-16
1.98539e-16
4.49522e-17
7.0944e-18
6.92354e-19
1.15552e-20
-2.7123e-21
-1.02989e-22
8.91658e-24
9.21816e-26
-1.90193e-26
6.09448e-28
-7.00071e-30
-8.172e-32
2.91303e-33
-4.02201e-35
-2.18503e-36
1.11798e-37
-2.06829e-39
-1.18442e-41
7.06318e-43
4.1596e-45
4.24111e-48
9.53236e-08
6.20103e-52
-0.000112614
-7.58446e-05
-0.000164634
-2.5102e-07
3.19373e-07
-4.55062e-07
1.65862e-07
4.32031e-07
-3.43826e-06
-1.52128e-06
1.10919e-05
-9.77945e-06
-1.11182e-07
-0.000108877
-1.10115e-07
1.47124e-07
9.10531e-08
8.45534e-08
8.93778e-08
8.39057e-08
7.98286e-08
2.18317e-07
-1.7311e-07
9.83054e-08
0
0
0
0
0
0
-2.07695e-49
5.37563e-35
-9.28228e-32
3.35089e-29
-8.31422e-28
-4.83329e-27
-9.69601e-27
2.6501e-26
3.11213e-26
2.87263e-26
3.07109e-26
-2.76916e-26
7.37111e-27
4.45295e-26
3.53661e-26
2.26279e-26
1.37349e-24
-2.51169e-24
3.76378e-24
-2.42316e-24
-3.63373e-23
8.58697e-23
3.22355e-23
5.41997e-23
-3.11609e-23
-4.27415e-23
-2.77434e-22
-3.5828e-22
1.73365e-22
1.15793e-22
-2.64256e-22
-2.25229e-22
4.25481e-22
6.35104e-22
8.36635e-22
9.09782e-22
-1.3279e-22
7.24576e-23
-1.03086e-22
-4.08023e-22
-4.93213e-22
-6.19284e-22
-6.04192e-22
-4.59055e-22
-1.66262e-23
-2.54816e-22
-5.66433e-23
-6.74252e-23
3.78164e-23
6.8583e-23
4.88223e-23
4.07468e-23
9.9536e-24
1.72028e-23
1.04305e-23
3.83327e-24
3.91703e-24
-2.17048e-24
4.5432e-25
-1.44565e-26
-4.39113e-25
-1.6886e-25
-4.42751e-26
-1.09239e-25
2.44744e-26
-1.26471e-26
-3.0921e-26
-1.83591e-26
1.356e-26
-9.85316e-27
1.0749e-28
-1.56599e-28
-1.65975e-27
-6.3915e-28
-7.51541e-28
-4.50604e-28
-3.06086e-28
-1.42029e-28
-8.02374e-29
-2.48212e-29
-2.66697e-30
-1.75528e-29
2.05891e-30
3.09733e-30
2.50904e-30
1.99304e-30
5.61543e-31
6.00785e-31
4.64176e-31
7.14161e-32
8.65436e-32
7.93384e-30
1.0153e-21
-5.37592e-20
-1.14135e-18
2.90203e-17
8.3786e-16
7.34581e-15
2.90646e-14
7.09478e-14
1.15496e-13
1.4644e-13
1.61432e-13
1.6745e-13
1.70058e-13
1.74677e-13
1.77118e-13
1.70261e-13
1.44746e-13
1.07457e-13
6.94652e-14
3.94142e-14
1.92068e-14
8.34347e-15
3.12064e-15
1.04004e-15
3.08722e-16
7.35047e-17
1.24991e-17
1.34262e-18
3.64323e-20
-4.68634e-21
-2.62761e-22
1.55511e-23
4.26691e-25
-4.0862e-26
1.06987e-27
-4.31079e-30
-4.60556e-31
1.21284e-32
-2.04706e-34
-2.18055e-36
2.20561e-37
-4.97695e-39
-1.28171e-41
1.58104e-42
8.65347e-45
8.61695e-48
1.61881e-51
6.30017e-08
3.54244e-07
-9.74057e-08
9.6218e-08
1.42607e-06
-1.00401e-06
-2.00202e-06
9.6602e-06
1.63248e-05
-5.75936e-05
6.13289e-09
7.8962e-08
3.73848e-08
5.03322e-08
4.78075e-08
4.80055e-08
7.10252e-08
-2.07677e-08
1.39545e-07
-6.39342e-08
0
0
0
0
0
0
2.52517e-40
-2.32437e-32
-2.31408e-30
-5.732e-28
-1.6911e-27
-5.73446e-28
-1.094e-26
3.04604e-26
1.21249e-26
2.08684e-26
1.48227e-26
-4.72468e-26
8.15731e-26
4.85336e-26
4.98807e-27
1.72907e-25
5.92242e-24
4.36379e-24
9.622e-24
4.52931e-25
1.18487e-23
2.10499e-23
6.42911e-23
4.4993e-23
2.54053e-22
9.53861e-23
1.4182e-22
3.92824e-23
-3.85881e-22
2.64823e-22
-3.39899e-23
3.12395e-22
1.93163e-22
1.06701e-21
7.01408e-22
6.23301e-23
4.04746e-22
-5.67515e-23
-4.66956e-22
-4.2093e-22
-4.639e-22
-4.39315e-22
-4.56908e-22
-2.04864e-22
-2.99406e-22
-7.47412e-23
-5.30065e-23
-1.28151e-23
6.14379e-23
4.74787e-23
3.68357e-23
1.91876e-23
1.56085e-23
1.154e-23
3.14126e-25
2.25743e-24
-9.69054e-25
1.64078e-24
2.04563e-25
-5.42725e-25
-7.05146e-26
-1.56217e-25
-1.65348e-26
-1.10547e-25
-1.4107e-26
-6.14995e-26
-1.7304e-26
1.66678e-26
-7.80636e-27
1.83318e-27
1.66783e-27
-5.94567e-28
-8.60203e-28
-1.08413e-27
-5.0837e-28
-3.45814e-28
-1.66787e-28
-1.1573e-28
-2.15886e-29
-1.22616e-29
-1.59387e-29
4.94775e-30
2.12181e-30
3.44186e-30
2.07514e-30
5.28036e-31
5.0311e-31
3.37425e-31
2.05153e-31
9.83378e-32
-5.59614e-31
5.61655e-19
2.03721e-16
2.6958e-15
1.58221e-14
4.80431e-14
9.39852e-14
1.33697e-13
1.55683e-13
1.65957e-13
1.68605e-13
1.72113e-13
1.76306e-13
1.75194e-13
1.5977e-13
1.26918e-13
8.76472e-14
5.33335e-14
2.78475e-14
1.28809e-14
5.14184e-15
1.82172e-15
5.84873e-16
1.55994e-16
3.14094e-17
4.37922e-18
2.87579e-19
-4.21351e-21
-1.56521e-21
3.14459e-24
4.40168e-24
-1.25756e-25
-2.69814e-27
2.44158e-28
-7.59725e-30
1.80212e-31
-3.31867e-33
8.12514e-35
-1.66857e-36
7.19995e-39
6.36429e-40
-8.53389e-42
-1.38378e-43
-3.40712e-46
-1.34704e-49
-2.06699e-53
-1.09555e-07
2.29526e-07
-4.05509e-07
6.26257e-07
3.10363e-07
-3.13824e-06
2.72443e-06
1.48435e-05
-3.94763e-06
-0.00015619
1.06854e-07
4.62612e-08
4.97467e-08
5.02522e-08
4.78921e-08
3.7929e-08
5.53215e-08
1.73773e-07
-7.37102e-08
5.6717e-08
0
-6.65882e-24
-3.7046e-19
2.95134e-21
-1.06632e-22
-2.03125e-07
0
0
0
0
0
0
0
0
0
0
0
0
0
0
0
0
0
0
0
0
0
0
0
0
0
0
0
0
0
0
0
0
0
0
0
0
0
0
0
0
0
0
0
0
0
0
0
0
0
0
0
0
0
0
0
0
0
0
0
0
0
0
0
0
0
0
0
0
0
0
0
0
0
0
0
0
0
0
0
0
0
0
0
0
0
0
0
0
0
0
0
0
0
0
0
0
0
0
0
0
0
0
0
0
0
0
0
0
0
0
0
0
0
0
0
0
0
0
0
0
0
0
0
0
0
0
0
0
0
0
0
0
0
0
0
0
0
0
0
0
0
0
0
0
0
0
0
0
0
0
0
0
0
0
0
0
0
0
0
0
0
0
0
0
0
0
0
0
0
0
0
0
0
0
0
0
0
0
0
0
0
0
0
0
0
0
0
0
0
0
0
0
0
0
0
0
-8.35982e-24
1.96641e-24
3.98196e-24
1.19395e-21
0
0
0
0
-1.2195e-47
1.53618e-32
-5.42227e-30
2.43034e-27
-2.56596e-26
7.22512e-28
4.3302e-26
3.88803e-25
7.96077e-25
5.10243e-25
3.88e-25
7.735e-25
2.89426e-25
7.56008e-25
2.20597e-24
1.52847e-24
-1.84451e-23
1.92283e-23
9.42809e-22
2.82931e-22
-3.1329e-22
7.33001e-22
-6.2771e-22
-9.29586e-22
-2.29089e-21
-1.22507e-21
-1.80501e-21
-2.98537e-21
-1.46303e-21
-6.04015e-21
-5.31703e-21
-8.25845e-21
-6.09466e-21
-6.79803e-22
2.90857e-21
1.04172e-20
1.06239e-20
1.50487e-20
1.72717e-20
9.30769e-21
1.23253e-20
3.62637e-21
1.70202e-21
-2.96993e-21
-5.79261e-21
-6.90641e-21
-6.31602e-21
-4.93383e-21
-3.65009e-21
-1.61474e-21
-9.61117e-22
-2.66609e-22
3.56979e-22
4.37697e-22
4.62066e-22
3.82346e-22
2.83191e-22
1.56856e-22
1.10777e-22
7.12032e-23
1.73768e-23
8.49463e-24
9.07408e-25
-3.94637e-24
-4.64166e-24
-3.689e-24
-2.95834e-24
-2.10325e-24
-1.10596e-24
-7.72486e-25
-3.57114e-25
-1.78286e-25
-1.0469e-25
-2.53309e-26
-1.41183e-26
-3.1465e-27
4.52026e-27
2.91278e-27
3.19384e-27
2.15766e-27
1.51276e-27
1.01908e-27
6.27038e-28
3.72407e-28
1.92511e-28
1.1588e-28
5.74175e-29
3.36763e-29
1.67083e-29
1.98604e-30
9.36985e-31
5.15696e-28
9.83939e-19
0
1.078e-27
0
0
0
0
0
0
0
0
0
0
0
0
0
0
0
0
0
0
0
0
0
0
0
0
0
0
0
0
0
0
0
0
0
0
0
0
0
0
0
0
0
0
0
0
0
0
0
0
0
0
0
0
0
0
0
0
0
0
0
0
0
0
0
0
0
0
0
0
0
0
0
0
0
0
0
0
0
0
1.12701e-118
0
3.8418e-116
3.63906e-118
-1.19701e-114
-1.98992e-114
5.5143e-113
-1.93142e-113
-1.36148e-109
-1.68203e-109
-2.48722e-107
-3.06853e-107
-1.57906e-107
-1.97323e-107
-9.89315e-108
-1.2245e-107
-2.05296e-107
-2.52564e-107
-1.94213e-106
-2.27331e-106
-1.90968e-106
-1.00239e-106
-2.31743e-104
-2.70553e-104
-3.13942e-104
-3.5839e-104
-2.06507e-104
-2.29077e-104
-5.40632e-104
-4.91621e-104
-1.20304e-103
-1.42972e-103
-1.06776e-103
-1.30107e-103
-2.48507e-103
-3.07969e-103
-1.64305e-103
-1.91413e-103
-5.31094e-103
-3.84989e-103
-3.42504e-100
-4.28811e-100
-1.2245e-99
4.6379e-99
-1.73752e-99
1.96877e-99
-4.53946e-97
-8.05898e-98
-5.16683e-95
-6.81639e-95
-1.65462e-93
7.35896e-93
-4.75131e-93
5.13501e-93
-3.82928e-91
-3.91292e-91
-3.8678e-91
-3.47915e-91
-3.22965e-91
-1.9073e-91
-7.78023e-90
-6.88434e-90
-9.88462e-90
-8.99749e-90
-1.04366e-89
4.90933e-90
-9.02947e-90
6.73037e-91
1.74194e-88
7.22835e-88
-3.84397e-86
-1.55916e-86
-5.88529e-86
1.00937e-85
-3.56608e-85
1.38996e-85
-4.42168e-85
7.55012e-85
-1.33594e-84
2.94032e-84
-1.64334e-83
-1.97001e-83
5.90381e-82
2.07377e-82
2.56009e-82
1.16994e-81
3.73415e-81
9.83193e-81
6.44715e-81
2.16756e-80
-4.68178e-81
4.12286e-80
-4.31841e-80
1.15462e-79
-9.02492e-80
6.81652e-80
-9.66782e-80
8.34793e-80
-4.19106e-79
6.92808e-81
-4.45844e-79
-7.09683e-80
-3.19003e-79
-1.19305e-79
-5.03742e-79
1.09949e-78
-1.69863e-78
5.77465e-79
-3.82924e-78
9.67812e-79
-7.78403e-78
-2.15443e-78
-2.04263e-77
3.10525e-78
-1.62264e-77
2.81844e-78
-1.42935e-77
2.11515e-78
-3.54948e-77
-1.4213e-77
-3.09054e-77
-3.00864e-78
-3.16291e-77
1.77821e-77
-2.30349e-76
8.15988e-77
-3.94484e-76
8.97391e-77
-5.27691e-76
5.41838e-76
-5.36588e-76
5.1522e-76
-7.18138e-76
1.64996e-76
-1.59572e-75
2.59089e-75
-7.6109e-75
-2.45155e-75
-6.06475e-75
4.40408e-76
-5.02444e-75
8.45316e-76
-4.3507e-75
9.413e-76
-1.19509e-74
-4.9381e-75
-1.04687e-74
-3.44098e-75
-8.29774e-75
-2.32334e-75
-1.37035e-74
-3.03855e-75
-1.70822e-74
-6.6276e-75
-1.39683e-74
-1.09833e-75
-1.88304e-74
7.76568e-75
-2.65996e-74
-7.59899e-75
-2.68164e-74
5.83395e-75
-5.09705e-74
-3.69534e-74
-3.55865e-74
-1.94329e-74
-2.49697e-74
-1.29638e-74
-1.77657e-74
-7.68646e-75
-1.52469e-74
-7.64225e-75
-1.63816e-74
-9.68068e-75
-1.22262e-74
-5.17103e-75
-1.33367e-74
-1.29403e-75
-1.21509e-74
6.84931e-76
-1.01203e-74
7.8083e-76
-7.32313e-75
3.17398e-75
-2.89149e-75
7.95849e-75
-3.32697e-75
2.84322e-75
6.5179e-75
1.52008e-74
3.08514e-75
1.16116e-74
7.36547e-76
8.89028e-75
2.6606e-76
7.74095e-75
-7.42157e-76
5.92385e-75
-1.56925e-75
5.02938e-75
3.00677e-75
9.62778e-75
9.57946e-76
6.87786e-75
1.4332e-75
7.99973e-75
-1.62525e-76
5.65969e-75
4.39373e-75
1.00243e-74
2.70719e-75
7.83383e-75
1.01459e-75
4.94053e-75
1.57626e-75
5.58131e-75
8.18917e-76
4.66789e-75
-1.35206e-76
2.48265e-75
1.289e-75
3.91073e-75
2.03206e-75
4.51069e-75
9.67023e-76
2.88948e-75
9.72095e-76
2.64687e-75
3.82224e-76
1.72978e-75
4.74736e-76
1.71115e-75
1.2766e-76
1.14731e-75
1.52825e-75
2.4166e-75
1.21756e-75
1.93219e-75
7.55239e-76
1.19925e-75
1.96828e-75
1.69156e-75
2.6398e-75
2.43657e-75
1.84404e-75
1.43864e-75
2.40013e-75
-2.6725e-77
3.08295e-75
1.84905e-75
2.94144e-75
8.03806e-76
2.16711e-75
7.12211e-76
2.46226e-75
1.00839e-75
1.7984e-75
7.25119e-76
1.30498e-75
5.54372e-76
1.47713e-75
8.58532e-76
1.99393e-75
1.66201e-75
1.39695e-75
1.07467e-75
2.17467e-75
1.52165e-75
2.01467e-75
1.61446e-75
1.36354e-75
1.12032e-75
1.02168e-75
6.69476e-76
8.46484e-76
7.02088e-76
5.65477e-76
4.37472e-76
5.51651e-76
3.93188e-76
4.4599e-76
3.47784e-76
2.97412e-76
2.48486e-76
2.07534e-76
1.83904e-76
1.44627e-76
1.2574e-76
1.07062e-76
5.89198e-77
-5.32534e-75
-4.59387e-75
1.83107e-72
1.77317e-73
3.0083e-69
-9.07231e-71
5.98862e-67
-2.10714e-67
-6.63643e-65
-1.0807e-64
-1.07977e-65
-2.05769e-64
4.48082e-65
-1.67463e-64
5.15178e-65
-3.69992e-64
3.44149e-62
2.89498e-62
2.77071e-59
-2.25127e-60
1.40794e-57
-1.02205e-57
-1.14748e-56
-1.38321e-56
-4.79852e-55
-5.81017e-55
-2.62303e-55
-1.67379e-53
-4.04909e-55
-4.38637e-19
9.39879e-08
-1.28904e-07
-3.71468e-08
-6.57775e-20
-1.65843e-19
-1.13221e-22
-2.42616e-23
-1.74214e-22
-1.30351e-18
-8.6921e-19
-1.97238e-18
2.8602e-21
6.49539e-22
2.42573e-16
3.18623e-15
1.85557e-14
5.62599e-14
1.10048e-13
1.5647e-13
1.8219e-13
1.9448e-13
1.97165e-13
2.01569e-13
2.06218e-13
2.04936e-13
1.86858e-13
1.48234e-13
1.02369e-13
6.23267e-14
3.25789e-14
1.5047e-14
6.01031e-15
2.1271e-15
6.80707e-16
1.81637e-16
3.67752e-17
5.13581e-18
3.41633e-19
-4.57611e-21
-1.82908e-21
1.20411e-24
5.13305e-24
-1.3937e-25
-3.36178e-27
2.86433e-28
-8.65153e-30
2.01919e-31
-3.69686e-33
9.13771e-35
-1.89427e-36
8.99616e-39
7.00267e-40
-9.58846e-42
-1.51506e-43
-3.65889e-46
-1.35758e-49
1.51979e-51
3.20375e-51
-4.05755e-53
1.4164e-07
2.19651e-08
-0.000105866
-4.75028e-07
1.65111e-07
-4.88034e-09
7.70928e-08
1.85843e-07
4.88592e-08
1.40567e-07
1.04932e-07
2.42962e-07
2.62734e-07
2.67276e-07
4.32221e-07
6.07489e-07
1.35072e-07
6.74794e-07
-1.93345e-07
7.31703e-07
-1.32437e-06
5.22764e-07
-1.8422e-06
-4.38784e-08
-1.4557e-06
3.7332e-07
3.5676e-07
1.71183e-06
2.68354e-06
4.92225e-06
4.32166e-06
9.92126e-06
1.97427e-06
1.30817e-05
-4.5219e-06
9.25278e-06
-2.56801e-05
-2.80303e-06
-0.000184847
-0.000380683
-0.000275366
-0.000498831
-0.000148787
-0.000271986
-0.00028314
-0.000310295
-0.000402777
-0.000484732
-0.000253191
-0.000452013
-0.000143268
-0.00027879
-0.000192352
-0.000246777
-0.000206844
-0.000297422
-0.000243947
-0.00032118
-0.000278874
-0.000369049
-0.000239515
-0.000362814
-0.00018665
-0.000307349
-0.00020631
-0.000294107
-0.000259249
-0.000335935
-0.000271372
-0.000363934
-0.000233564
-0.000366768
-0.00019185
-0.000234349
-0.000335068
0
-6.69102e-08
-6.32624e-09
1.05673e-07
-6.05622e-07
-1.11858e-06
2.92442e-06
7.28563e-06
-1.20249e-05
-0.000112355
1.36607e-07
9.5668e-08
-2.50575e-08
7.50336e-08
-2.86798e-08
-6.08967e-08
-2.86124e-08
-3.24099e-08
-3.78281e-08
-4.08907e-08
4.56833e-09
-3.97759e-08
1.07016e-08
-5.82174e-09
0
0
0
-1.39665e-07
-4.59108e-07
2.69575e-07
-5.50912e-05
-0.000352103
-8.57566e-05
1.31632e-08
-1.0499e-07
-5.94619e-05
-3.1909e-05
-3.68388e-08
1.15236e-08
1.07467e-27
0
0
-1.2888e-25
2.86351e-21
0
-9.27134e-26
0
0
0
0
-2.09991e-36
-7.58207e-31
-1.51111e-28
-2.1163e-26
-3.42225e-26
-8.39108e-26
3.01701e-26
7.23239e-25
9.15914e-25
6.38338e-25
9.24219e-25
1.25428e-26
9.35387e-25
1.10751e-24
1.95325e-24
9.83971e-24
6.94463e-23
1.55492e-22
1.08491e-22
1.1287e-21
1.6147e-22
8.32632e-22
9.47558e-22
1.16617e-21
4.85511e-22
5.79903e-22
-1.10241e-21
-3.94695e-21
-7.56778e-21
-3.91321e-21
-6.25486e-21
-9.10338e-21
-6.80833e-21
3.45998e-22
5.33368e-21
1.2175e-20
1.52424e-20
1.27649e-20
5.79919e-21
1.09896e-20
4.30435e-21
8.57013e-22
-3.03661e-21
-5.86449e-21
-6.90229e-21
-6.2837e-21
-4.92479e-21
-4.71997e-21
-1.92135e-21
-1.37216e-21
-3.94492e-22
2.89121e-22
4.40759e-22
4.40854e-22
4.0242e-22
3.27713e-22
2.1235e-22
1.38396e-22
9.04885e-23
3.72233e-23
1.25258e-23
4.99719e-24
-3.73038e-24
-4.31733e-24
-4.00294e-24
-3.35776e-24
-2.38474e-24
-1.42123e-24
-9.21019e-25
-4.30998e-25
-2.16616e-25
-1.35187e-25
-5.54946e-26
-1.98576e-26
-3.15999e-27
4.21486e-27
3.68951e-27
3.89961e-27
2.57824e-27
1.76998e-27
1.28905e-27
8.06291e-28
4.72366e-28
2.61278e-28
1.49688e-28
7.50311e-29
4.36019e-29
2.21355e-29
8.31293e-30
1.11173e-30
-1.89651e-29
0
0
0
0
-9.15546e-05
3.57452e-17
9.90194e-16
8.61809e-15
3.41326e-14
8.30416e-14
1.35285e-13
1.7141e-13
1.89063e-13
1.96256e-13
1.98993e-13
2.0445e-13
2.07217e-13
1.99112e-13
1.69064e-13
1.25567e-13
8.10754e-14
4.61e-14
2.24703e-14
9.74297e-15
3.63754e-15
1.21402e-15
3.60397e-16
8.57362e-17
1.46148e-17
1.56975e-18
4.39907e-20
-5.39172e-21
-3.13294e-22
1.77558e-23
5.22268e-25
-4.74459e-26
1.20498e-27
-3.7126e-30
-5.71787e-31
1.49061e-32
-2.52253e-34
-2.07576e-36
2.42997e-37
-5.58101e-39
-1.24743e-41
1.76064e-42
9.39106e-45
9.08978e-48
0
4.26374e-08
-8.78969e-05
-0.000193352
-1.63972e-08
0
-1.71477e-07
3.21393e-07
2.69055e-07
-7.45039e-07
2.69697e-07
6.07277e-06
5.56287e-06
-4.20132e-05
-4.60765e-05
-2.76862e-08
-3.04157e-08
-4.28775e-08
-4.04554e-08
-2.75069e-08
-4.53198e-08
-3.62734e-08
-3.61597e-08
-3.99462e-08
-9.73401e-08
1.09345e-07
-2.84326e-08
-6.46527e-08
0
-7.54855e-26
0
-1.03895e-07
3.39112e-08
-7.78806e-08
-4.40598e-08
-2.4177e-08
4.75353e-06
8.07342e-06
1.0728e-06
-8.31483e-07
-1.08384e-07
1.19686e-07
-2.52115e-49
-7.0703e-46
-3.386e-43
-2.38225e-41
1.4131e-39
3.59771e-38
-4.46668e-36
1.94928e-34
-6.76014e-33
3.677e-31
-1.71068e-29
6.46446e-28
-1.0695e-26
-1.89949e-25
1.0148e-23
-3.76831e-23
-3.44339e-21
1.76876e-22
7.09187e-19
8.94576e-18
6.06246e-17
2.77646e-16
9.97405e-16
3.08666e-15
8.57405e-15
2.07319e-14
4.40032e-14
8.11623e-14
1.30568e-13
1.81483e-13
2.21652e-13
2.37499e-13
2.35356e-13
2.29378e-13
2.25537e-13
2.19737e-13
2.0381e-13
1.69085e-13
1.10839e-13
4.99729e-14
7.5074e-28
-4.47107e-30
-3.9446e-30
3.89176e-30
1.26501e-29
2.12739e-29
4.64648e-29
8.03787e-29
1.78995e-28
3.39293e-28
5.55268e-28
8.24753e-28
1.00489e-27
1.9546e-27
4.82783e-27
7.26996e-27
1.35186e-26
1.04257e-26
2.20012e-26
2.15418e-26
3.91812e-26
-2.37661e-26
-1.17605e-25
5.20153e-26
-2.26964e-25
-5.75964e-25
1.16533e-26
-1.04038e-24
4.12601e-25
4.34085e-24
6.36897e-25
2.06082e-24
1.76222e-23
1.95681e-23
-1.44399e-23
-7.55597e-23
-1.20435e-22
-1.54335e-22
-2.58525e-22
-2.66952e-22
-2.18429e-22
-8.78591e-23
-1.0255e-22
2.40589e-21
3.1953e-21
6.17014e-21
7.34062e-21
8.96987e-21
1.09373e-20
3.07009e-21
8.66916e-22
-1.13635e-20
-1.67935e-20
-2.11028e-20
-1.47336e-20
-2.65205e-20
-2.24753e-20
-1.02387e-20
-1.49535e-20
-1.17634e-21
1.62875e-20
9.31917e-26
2.98211e-27
2.25984e-20
5.63784e-22
6.92564e-21
1.33059e-20
1.01575e-20
4.96131e-21
-2.77891e-21
-2.59872e-21
-2.28969e-21
-1.89162e-21
-5.89224e-21
7.54228e-22
-1.6143e-21
-6.71572e-23
-7.15242e-23
-4.83365e-24
-3.61883e-24
-2.84494e-24
-2.60141e-24
1.76263e-24
-2.83303e-24
-1.73684e-24
-1.02434e-24
-2.57754e-24
-3.72257e-25
1.41477e-08
1.06763e-09
-6.83251e-08
6.49268e-09
-3.03084e-08
-2.89294e-08
-2.76869e-08
-0.000130654
-7.09689e-06
8.18208e-06
4.22827e-06
-3.37196e-07
-2.97708e-07
-7.72111e-08
1.76632e-47
1.949e-44
3.94733e-42
5.81923e-42
-1.3117e-38
4.38066e-37
1.88717e-36
-8.23356e-34
4.33948e-32
-1.83654e-30
1.63218e-29
1.85003e-27
-9.50536e-26
1.49814e-24
2.8598e-23
-7.13105e-22
-8.48137e-21
1.1002e-19
2.88925e-18
2.47329e-17
1.34824e-16
5.47774e-16
1.79087e-15
5.20882e-15
1.35533e-14
3.07526e-14
6.13025e-14
1.04394e-13
1.56697e-13
2.03598e-13
2.31704e-13
2.37394e-13
2.31979e-13
2.27016e-13
2.23801e-13
2.1339e-13
1.89269e-13
1.41129e-13
7.85912e-14
0
5.68341e-18
-3.2935e-30
2.63542e-31
1.8787e-31
6.66109e-30
1.68354e-29
2.58179e-29
6.19265e-29
1.22908e-28
2.43937e-28
4.44201e-28
6.64221e-28
8.74848e-28
1.57802e-27
5.17853e-27
5.91222e-27
5.96087e-27
1.91364e-26
1.77954e-26
-7.73034e-27
1.48902e-26
6.26413e-26
5.5951e-26
-7.11806e-26
-1.3425e-25
-2.17726e-25
-1.57384e-25
-2.20015e-26
7.24499e-25
1.87218e-24
3.36487e-24
2.08847e-24
2.1339e-23
8.04032e-24
-6.02984e-24
3.51103e-23
-5.10509e-23
-1.29092e-22
-2.21205e-22
-2.1732e-22
-1.92847e-22
1.86374e-22
1.13199e-22
2.74438e-21
1.48938e-21
3.65945e-21
6.31875e-21
8.33713e-21
7.1134e-21
7.16892e-21
-3.73472e-21
-1.3731e-20
-1.60339e-20
-3.08521e-20
-2.5348e-20
-2.02045e-20
-1.57723e-20
-1.9363e-20
-1.71088e-20
-6.76453e-21
1.12279e-21
8.93718e-21
7.85938e-21
1.29247e-20
-1.4175e-21
-6.08221e-22
3.35443e-21
1.69751e-22
2.40739e-21
-2.08509e-21
-2.26329e-21
-3.47045e-21
-4.66222e-22
-5.08012e-21
-7.30024e-22
3.0273e-22
9.5713e-24
-3.74534e-24
-4.72049e-24
-3.49447e-24
-6.57271e-25
8.33748e-30
1.4019e-24
1.23172e-25
1.30854e-24
-1.32516e-24
2.99808e-25
-3.94655e-25
-2.83928e-26
-5.09551e-26
1.14019e-28
-1.12563e-30
-3.19691e-36
-9.37212e-35
0
0
0
1.41972e-14
1.82421e-15
8.29929e-17
4.87472e-16
5.67391e-15
2.84574e-14
-2.01962e-07
1.05437e-07
2.71723e-07
-3.86137e-08
-2.5199e-08
-2.56765e-08
-2.82795e-08
0
0
0
0
0
0
0
0
0
0
0
0
0
0
0
0
0
0
0
0
0
0
0
0
0
0
0
0
0
0
0
0
0
0
0
0
0
0
0
0
0
0
0
0
0
0
0
0
0
0
0
0
0
0
0
0
0
0
0
0
0
0
0
0
0
0
0
0
0
0
0
0
0
0
0
0
0
0
0
0
0
0
0
0
0
0
0
0
0
0
0
0
0
0
0
0
0
0
0
0
0
0
0
0
0
0
0
0
0
0
0
0
0
0
0
0
0
0
0
0
0
0
0
0
0
0
0
0
0
0
0
0
0
0
0
0
0
0
0
0
0
0
0
0
0
0
0
0
0
0
0
0
0
0
0
0
0
0
0
0
0
0
0
0
0
0
0
0
0
0
0
0
0
0
0
0
0
0
0
0
0
0
0
0
0
0
0
0
0
0
4.43448e-24
3.30793e-21
1.67259e-14
1.15673e-08
0
0
0
0
0
0
2.80661e-32
-1.93815e-34
2.20337e-33
-1.28634e-23
1.88157e-19
4.52086e-27
-1.47202e-24
0
0
-4.28983e-25
-1.30853e-08
-6.40402e-24
8.09778e-24
-1.81807e-23
6.45145e-24
1.99451e-23
-1.77779e-23
6.48699e-23
4.17686e-23
4.34921e-28
1.45274e-26
3.01745e-24
-4.98384e-24
-1.22987e-23
-7.19897e-24
1.22541e-22
2.35058e-21
-1.13903e-20
-3.82022e-20
-7.33294e-21
-5.03499e-21
-1.00799e-20
-1.60606e-20
-5.52638e-21
-1.43553e-20
-3.02731e-20
-5.42819e-21
2.90477e-20
1.9895e-19
1.21606e-19
-4.61403e-19
2.27816e-24
1.76957e-23
1.83842e-19
1.78976e-19
7.9126e-20
2.2572e-19
7.44877e-20
-4.11539e-20
-3.33307e-20
-3.18896e-19
-3.61153e-19
-4.68535e-19
-3.57609e-19
-4.08621e-19
-1.73529e-19
-7.06848e-21
1.27332e-20
7.05276e-20
7.9193e-20
9.02751e-20
5.65738e-20
4.78214e-20
3.67115e-20
1.59474e-20
7.35788e-21
2.00775e-21
-1.98343e-22
-2.31383e-21
-2.38843e-21
-1.85282e-21
-1.52853e-21
-8.6033e-22
-6.33201e-22
-3.21728e-22
-1.57939e-22
-8.29369e-23
-1.51515e-24
4.0458e-24
9.09054e-24
1.27472e-23
9.74571e-24
6.87039e-24
4.57401e-24
3.10804e-24
1.82246e-24
1.101e-24
7.21318e-25
3.30638e-25
2.05193e-25
7.02028e-26
3.04654e-26
1.74326e-26
5.17233e-27
9.88805e-28
8.82878e-29
-6.01314e-28
-4.82987e-28
-5.85188e-28
-3.43668e-28
-2.30001e-28
-1.89049e-28
1.02233e-28
0
0
0
0
0
0
0
0
0
0
0
0
0
0
0
0
0
0
0
0
0
0
0
0
0
0
0
0
0
0
0
0
0
0
0
0
0
0
0
0
0
0
0
0
0
0
0
0
0
0
0
0
0
0
0
0
0
0
0
0
0
0
0
0
0
0
0
0
0
0
0
0
0
0
0
0
0
0
2.47246e-116
0
2.55053e-114
2.78037e-114
-7.22416e-113
-2.27595e-112
-2.82282e-109
-3.6489e-109
-1.01793e-107
4.42908e-107
-1.66893e-105
-2.03562e-105
-1.06546e-105
-1.2782e-105
-4.97829e-105
-6.15421e-105