/*--------------------------------*- C++ -*----------------------------------*\
  =========                 |
  \\      /  F ield         | OpenFOAM: The Open Source CFD Toolbox
   \\    /   O peration     | Website:  https://openfoam.org
    \\  /    A nd           | Version:  7
     \\/     M anipulation  |
\*---------------------------------------------------------------------------*/
FoamFile
{
    version     2.0;
    format      ascii;
    class       volScalarField;
    location    "0.28";
    object      T;
}
// * * * * * * * * * * * * * * * * * * * * * * * * * * * * * * * * * * * * * //

dimensions      [0 0 0 1 0 0 0];

internalField   nonuniform List<scalar> 
46572
(
0
0
0
0
0
0
0
0
0
0
0
0
0
0
0
0
0
0
0
0
0
0
0
0
0
0
0
0
0
0
0
0
0
0
0
0
0
0
0
0
0
0
0
0
0
0
0
0
0
0
0
0
0
0
0
0
0
0
0
0
0
0
0
0
0
0
0
0
0
0
0
0
0
0
0
0
0
0
0
0
0
0
0
0
0
0
0
0
0
0
0
0
0
0
0
0
0
0
0
0
0
0
0
0
0
0
0
0
0
0
0
0
0
0
0
0
0
0
0
0
0
0
0
0
0
0
0
0
0
0
0
0
0
0
0
0
0
0
0
0
0
0
0
0
0
0
0
0
0
0
0
0
0
0
0
0
0
0
0
0
0
0
0
0
0
0
0
0
0
0
0
0
0
0
0
0
0
0
0
0
0
0
0
0
0
0
0
0
0
0
0
0
0
0
0
0
0
0
0
0
0
0
0
0
0
0
0
0
0
0
0
0
0
0
0
0
0
0
0
0
0
0
0
0
0
0
0
0
0
0
0
0
0
0
0
0
0
0
0
0
0
0
0
0
0
0
0
0
0
0
0
0
0
0
0
0
0
0
0
0
0
0
0
0
0
0
0
0
0
0
0
0
0
0
0
0
0
0
0
0
0
0
0
0
0
0
0
0
0
0
0
0
0
0
0
0
0
0
0
0
0
0
0
0
0
0
0
0
0
0
0
0
0
0
0
0
0
2.04053e-143
2.55066e-143
1.3147e-143
1.64337e-143
8.60457e-144
1.08673e-143
-1.40084e-140
2.44955e-141
4.89376e-137
-1.54654e-137
2.55707e-134
1.65224e-134
3.42409e-134
1.04001e-134
6.21501e-132
6.5173e-132
1.55217e-131
1.84135e-131
9.93447e-132
1.16986e-131
1.71746e-131
-2.99243e-131
2.42252e-130
2.17714e-130
6.22787e-130
5.15535e-130
2.23568e-129
1.12367e-129
2.15075e-129
-2.82387e-130
1.76537e-128
1.88221e-128
1.15433e-128
1.22602e-128
7.79164e-129
6.29927e-129
1.01044e-128
1.05236e-128
6.63368e-129
6.82492e-129
1.21745e-128
1.9368e-129
1.35569e-126
1.52958e-126
8.11329e-127
8.37939e-127
7.44264e-126
-2.424e-125
1.11806e-124
8.2202e-125
1.47052e-124
1.44142e-124
1.83295e-124
9.7323e-125
2.24018e-124
-1.59713e-124
2.63127e-123
3.02796e-123
4.22606e-123
-7.39596e-123
1.47243e-122
9.47661e-123
1.03168e-122
6.82608e-123
8.48225e-123
-2.39178e-123
4.38827e-122
-1.45856e-121
7.7545e-121
5.02068e-121
5.1526e-120
5.46353e-120
2.21305e-119
2.20954e-119
1.49741e-119
1.49212e-119
1.0219e-119
9.86371e-120
3.70338e-119
3.01865e-119
6.54923e-119
7.1307e-119
4.26735e-119
4.58892e-119
3.28037e-119
1.41125e-119
6.53739e-119
5.08764e-119
5.82069e-119
3.42447e-119
4.37315e-119
2.0352e-119
7.02947e-119
-9.811e-119
2.14496e-117
1.79467e-117
3.76711e-116
2.56947e-116
2.66453e-116
1.84666e-116
1.93112e-116
1.38533e-116
1.41904e-116
9.47088e-117
1.05767e-115
7.5679e-116
2.0922e-115
2.19777e-115
1.36953e-115
1.41404e-115
1.1507e-115
8.80267e-117
3.11525e-115
1.89088e-115
3.86455e-115
3.41623e-115
4.70938e-115
2.77159e-115
5.6052e-115
-6.40283e-115
1.16363e-114
4.67524e-115
3.36257e-114
1.66608e-114
2.45847e-114
1.3764e-114
3.43323e-114
3.2186e-114
2.34655e-114
2.17333e-114
1.74151e-114
1.16333e-114
9.38289e-114
9.89016e-114
6.0616e-114
6.23419e-114
5.96261e-114
-3.1018e-114
1.62213e-113
8.20012e-114
1.93081e-113
1.59198e-113
1.73789e-113
1.37165e-113
1.38705e-113
2.81951e-114
1.68827e-113
1.00001e-113
1.58515e-113
-5.54289e-114
2.1286e-113
9.94126e-114
2.21288e-113
1.68526e-113
1.57346e-113
1.06121e-113
1.40957e-113
1.14021e-113
1.62157e-113
1.48563e-113
5.3825e-113
-4.35501e-113
2.09112e-112
1.84663e-112
1.59657e-112
6.74164e-113
1.22855e-112
5.52276e-113
7.07864e-112
4.22219e-112
1.32079e-111
1.33139e-111
8.71358e-112
8.63094e-112
6.23931e-112
4.38446e-112
8.07088e-112
6.70531e-112
1.07552e-111
7.97265e-112
2.96308e-111
1.6915e-111
2.49057e-111
-3.21237e-113
1.9325e-111
3.12253e-112
1.6102e-111
-2.29089e-112
1.29931e-111
4.40889e-113
2.64824e-111
1.35141e-111
1.97795e-111
1.11212e-111
7.09628e-111
4.83929e-111
1.23489e-110
1.26052e-110
8.13808e-111
8.17069e-111
5.94478e-111
3.64806e-111
7.88272e-111
5.79675e-111
7.92514e-111
7.18957e-111
6.22162e-111
5.15177e-111
4.80367e-111
2.45888e-111
1.13426e-110
1.13072e-110
7.52357e-111
7.37775e-111
6.22563e-111
6.20215e-111
1.0771e-110
1.06731e-110
7.30553e-111
7.24003e-111
5.0979e-111
4.41672e-111
1.12439e-110
1.2144e-110
7.17708e-111
7.65951e-111
4.89079e-111
3.96373e-111
4.79171e-111
4.0837e-111
4.21413e-111
4.01222e-111
2.99959e-111
2.83352e-111
2.151e-111
1.67154e-111
3.69657e-111
4.00528e-111
2.58134e-111
2.18509e-111
2.55845e-111
2.31864e-111
1.85901e-111
1.73681e-111
1.24519e-111
1.1247e-111
8.33071e-112
7.248e-112
1.22076e-111
1.20814e-111
3.24431e-111
2.32421e-111
2.27562e-111
1.59658e-111
1.58363e-111
1.14251e-111
1.1155e-111
8.17455e-112
2.39129e-111
1.84177e-111
6.26822e-111
7.02104e-111
-1.15769e-109
-2.34263e-109
1.42224e-105
-4.92332e-105
1.63789e-105
-2.347e-105
-1.64563e-105
-1.95694e-106
1.07442e-97
-8.37022e-101
3.24319e-94
1.76095e-94
1.15975e-91
1.42979e-91
7.67194e-92
9.08478e-92
8.04427e-90
-6.1641e-19
-3.25917e-19
1.70473e-21
8.70642e-24
2.21892e-25
1.54226e-27
-4.14505e-29
2.19472e-31
1.92273e-33
-7.71596e-35
4.19731e-37
5.07796e-39
-4.28125e-41
-1.32909e-43
3.03564e-45
-9.15988e-48
-1.08079e-50
1.69861e-52
1.43798e-54
7.30114e-57
-1.08609e-58
-6.63295e-61
1.00387e-63
1.07252e-65
1.04875e-67
8.22827e-70
2.41587e-72
2.07143e-75
4.74446e-79
1.35262e-83
-7.5251e-19
0.0745705
0.11162
0.143777
0.169882
0.188796
0.196462
0.193117
0.181323
0.156771
0.122929
0.0804175
0.0360676
-0.00302129
-0.0329693
-0.0514878
-0.0652461
-0.0679041
-0.0627806
-0.0551545
-0.0464564
-0.0376577
-0.0290012
-0.0208249
-0.0152818
-0.0106066
-0.00715677
-0.00474416
-0.00314772
-0.00200681
-0.00126343
-0.000772661
-0.000484383
-0.000295177
-0.000174044
-0.000101797
-5.9846e-05
-3.51711e-05
-2.00759e-05
-1.1148e-05
-6.29299e-06
-3.45114e-06
-1.88293e-06
-1.02437e-06
-5.35973e-07
-2.91822e-07
-1.55377e-07
-8.14173e-08
-4.28515e-08
-2.22775e-08
-1.13301e-08
-5.75482e-09
-2.95401e-09
-1.51746e-09
-7.60103e-10
-3.73173e-10
-1.86526e-10
-9.10256e-11
-4.4149e-11
-2.1558e-11
-1.01699e-11
-4.97355e-12
-2.38173e-12
-1.12623e-12
-5.30949e-13
-2.52049e-13
-1.19877e-13
-5.5969e-14
-2.54603e-14
-1.19106e-14
-5.43882e-15
-2.4604e-15
-1.11032e-15
-5.07506e-16
-2.26396e-16
-1.01306e-16
-4.45593e-17
-2.00472e-17
-8.83438e-18
-3.97469e-18
-1.46403e-18
-9.046e-19
1.26221e-06
5.15731e-06
-2.1518e-05
3.74227e-06
-0.000125763
-0.000895157
-0.000650316
0.00425385
0.017625
0.0419686
0.0580766
0.0299883
4.06294e-05
3.84384e-05
2.84934e-05
3.01203e-05
3.09661e-05
3.27294e-05
3.29477e-05
3.26209e-05
2.90722e-05
3.2227e-05
-6.78169e-05
3.10976e-05
-4.04693e-05
2.24687e-05
5.60174e-05
-2.94663e-05
2.2034e-06
-5.99298e-05
-3.98937e-05
-5.29753e-05
-7.27197e-05
6.45909e-06
-6.25965e-05
1.52082e-05
-1.03806e-05
-6.07317e-05
-3.58168e-05
-0.000319735
-0.000205317
-0.000663564
-0.000592626
-0.000900309
-0.00115871
-0.00068256
-0.00176178
0.000487594
-0.0021016
0.00321253
-0.00175862
0.00795762
-0.000691903
0.0149611
0.0019448
0.0246595
0.00562065
0.0377865
0.0108293
0.0551256
0.0157835
0.0644357
0.0272626
0.0817263
0.0335192
0.0987448
0.0418373
0.114417
0.0483855
0.13006
0.054979
0.142859
0.0595798
0.154315
0.0614848
0.162062
0.0623923
0.169987
0.0604719
0.173633
0.0586988
0.175306
0.052866
0.175457
0.0456884
0.173616
0.0404227
0.169698
0.0323961
0.163981
0.0245325
0.153961
0.0154398
0.14271
0.00259397
0.127101
-0.00823781
0.111058
-0.0225015
0.0929375
-0.0368358
0.0733732
-0.0507825
0.0538757
-0.0641856
0.0342764
-0.0776422
0.0133822
-0.0894855
-0.00485097
-0.100123
-0.0207921
-0.108935
-0.0334096
-0.115119
-0.0455223
-0.119944
-0.0551243
-0.121456
-0.0594826
-0.120723
-0.0657553
-0.118822
-0.066153
-0.114216
-0.0655153
-0.108426
-0.0655627
-0.102741
-0.0635544
-0.0960034
-0.0588398
-0.0878242
-0.0556628
-0.0803571
-0.0511989
-0.0724759
-0.0465778
-0.0647691
-0.0415542
-0.0571569
-0.0368903
-0.0503903
-0.0327201
-0.0439208
-0.0281554
-0.037795
-0.0249425
-0.0326837
-0.0210171
-0.0276641
-0.0177753
-0.0232908
-0.0152113
-0.0197411
-0.0128872
-0.0165921
-0.0105976
-0.0136938
-0.00897645
-0.0114077
-0.00730522
-0.00930262
-0.00591985
-0.00756126
-0.00488551
-0.00618389
-0.00388709
-0.00493598
-0.00316319
-0.00400664
-0.00258277
-0.00325525
-0.0020718
-0.00260904
-0.00165772
-0.00208099
-0.00130548
-0.00164459
-0.00104111
-0.00130705
-0.000828375
-0.0010348
-0.000641705
-0.000805423
-0.000509871
-0.000635136
-0.000392523
-0.000490647
-0.000302788
-0.000378596
-0.000237084
-0.000294534
-0.000179089
-0.000223804
-0.000138884
-0.000173229
-0.000107937
-0.000134388
-8.28103e-05
-0.000103023
-6.33697e-05
-7.87303e-05
-4.81183e-05
-5.98075e-05
-3.65424e-05
-4.55087e-05
-2.7837e-05
-3.45749e-05
-2.08645e-05
-2.59733e-05
-1.59642e-05
-1.97372e-05
-1.18362e-05
-1.4699e-05
-8.82351e-06
-1.09566e-05
-6.64874e-06
-8.24377e-06
-4.99685e-06
-6.18433e-06
-3.6699e-06
-4.55934e-06
-2.75628e-06
-3.40983e-06
-2.04393e-06
-2.52793e-06
-1.51303e-06
-1.871e-06
-1.11264e-06
-1.37805e-06
-8.2026e-07
-1.01648e-06
-6.06636e-07
-7.50435e-07
-4.4257e-07
-5.48113e-07
-3.28008e-07
-4.04437e-07
-2.36165e-07
-2.92268e-07
-1.70863e-07
-2.11599e-07
-1.25167e-07
-1.54775e-07
-9.14797e-08
-1.12994e-07
-6.54761e-08
-8.10972e-08
-4.78779e-08
-5.9135e-08
-3.41625e-08
-4.22978e-08
-2.44222e-08
-3.0263e-08
-1.76982e-08
-2.18622e-08
-1.24616e-08
-1.54482e-08
-8.98344e-09
-1.11297e-08
-6.49393e-09
-8.04211e-09
-4.64724e-09
-5.75495e-09
-3.31946e-09
-4.1087e-09
-2.3521e-09
-2.91481e-09
-1.67801e-09
-2.08062e-09
-1.19957e-09
-1.48477e-09
-8.38904e-10
-1.04153e-09
-6.00922e-10
-7.43078e-10
-4.1949e-10
-5.20214e-10
-2.94121e-10
-3.64858e-10
-2.08748e-10
-2.58768e-10
-1.46858e-10
-1.82048e-10
-1.01947e-10
-1.26596e-10
-7.21455e-11
-8.94308e-11
-5.05496e-11
-6.26722e-11
-3.53981e-11
-4.38691e-11
-2.466e-11
-3.05907e-11
-1.71961e-11
-2.13442e-11
-1.20379e-11
-1.49241e-11
-8.3159e-12
-1.03216e-11
-5.83437e-12
-7.22763e-12
-4.00351e-12
-4.96837e-12
-2.75581e-12
-3.42117e-12
-1.91578e-12
-2.37651e-12
-1.33086e-12
-1.65002e-12
-9.0773e-13
-1.12753e-12
-6.30447e-13
-7.82083e-13
-4.33349e-13
-5.377e-13
-2.97647e-13
-3.69275e-13
-2.03742e-13
-2.5285e-13
-1.39463e-13
-1.73276e-13
-9.5813e-14
-1.18918e-13
-6.48004e-14
-8.04895e-14
-4.36672e-14
-5.42516e-14
-3.00312e-14
-3.72934e-14
-2.05111e-14
-2.54735e-14
-1.40156e-14
-1.74084e-14
-9.57572e-15
-1.18869e-14
-6.42156e-15
-7.98407e-15
-4.39038e-15
-5.44892e-15
-2.94057e-15
-3.65283e-15
-1.96959e-15
-2.44947e-15
-1.33528e-15
-1.65873e-15
-8.84603e-16
-1.10012e-15
-5.97947e-16
-7.43589e-16
-4.05528e-16
-5.04164e-16
-2.72726e-16
-3.39175e-16
-1.83162e-16
-2.27758e-16
-1.22683e-16
-1.52623e-16
-8.20813e-17
-1.02166e-16
-5.51727e-17
-6.85951e-17
-3.64707e-17
-4.53999e-17
-2.45774e-17
-3.05616e-17
-1.63544e-17
-2.03501e-17
-1.09222e-17
-1.35816e-17
-7.30677e-18
-9.07189e-18
-4.80687e-18
-5.96293e-18
-3.08543e-18
-3.8377e-18
-2.07201e-18
-2.58325e-18
-1.47958e-18
-9.70192e-19
-1.81248e-18
-1.40753e-40
6.24193e-39
2.25598e-36
-6.47086e-33
6.33628e-31
8.54584e-31
2.60906e-27
5.63584e-25
-1.16269e-22
4.01727e-21
-1.13005e-19
4.73206e-21
-2.6472e-19
0
0
0
0
0
0
0
0
0
0
0
0
9.81246e-40
6.75083e-36
1.20254e-34
-7.15028e-32
1.03458e-30
1.55789e-30
2.04356e-29
1.99969e-28
1.03755e-27
7.98322e-28
2.14571e-27
1.87161e-27
1.31443e-27
1.12929e-27
7.17953e-28
4.83264e-28
3.90645e-28
2.27178e-28
1.452e-28
1.71942e-28
1.90157e-28
2.17606e-28
2.60521e-28
2.39617e-28
2.44593e-28
1.71908e-28
1.42914e-28
9.54192e-29
6.41332e-29
4.11786e-29
2.58534e-29
1.62458e-29
6.52851e-30
-2.02668e-30
-8.5085e-30
-8.68388e-30
-8.32798e-30
-6.91135e-30
-4.58488e-30
-2.5016e-30
-5.30009e-31
-1.50222e-31
5.52715e-31
4.01797e-31
3.50156e-31
2.6974e-31
1.67274e-31
9.45633e-32
5.46747e-32
2.82214e-32
1.4708e-32
7.45078e-33
3.78259e-33
9.94873e-34
3.77519e-34
1.40789e-34
-1.65018e-34
-1.0641e-34
-1.299e-34
-7.52038e-35
-4.84578e-35
-3.00426e-35
-1.72542e-35
-9.64352e-36
-5.26966e-36
-2.68041e-36
-1.4283e-36
-7.05282e-37
-3.06319e-37
-6.47174e-38
-2.04606e-38
-8.16362e-40
9.72648e-39
7.15272e-39
6.16612e-39
3.31536e-39
1.63139e-39
1.12959e-39
6.01226e-40
3.53695e-40
1.67443e-40
7.96935e-41
3.66941e-41
1.68944e-41
8.01442e-42
2.77139e-42
1.04315e-42
-1.86415e-41
1.00516e-89
3.05324e-22
1.43557e-22
-7.80864e-20
-2.96279e-20
2.86795e-21
3.22092e-23
-4.23424e-24
2.19652e-26
-2.73017e-28
5.52866e-32
4.8362e-32
-3.53974e-34
-2.44952e-36
6.80403e-38
-1.30829e-40
-3.95741e-42
1.77291e-44
1.00848e-46
-7.7887e-49
1.2811e-51
1.54867e-53
1.33519e-55
-2.6248e-58
-1.14697e-59
-1.4822e-62
1.29703e-64
9.9339e-67
1.01742e-68
4.94836e-71
8.62361e-74
3.66301e-77
3.50642e-81
-7.72863e-06
2.18647e-86
0.092575
0.129541
0.15786
0.180835
0.192104
0.195283
0.188463
0.170607
0.141096
0.100813
0.0593708
0.0183346
-0.0175854
-0.0414359
-0.0598963
-0.0657321
-0.0639975
-0.0611443
-0.0511529
-0.0420776
-0.0325289
-0.0240182
-0.0178642
-0.0124603
-0.00856823
-0.0059432
-0.00382932
-0.00246113
-0.00157481
-0.000971013
-0.000612732
-0.000373954
-0.000221917
-0.00013531
-7.81293e-05
-4.59829e-05
-2.62135e-05
-1.46697e-05
-8.42627e-06
-4.57556e-06
-2.49704e-06
-1.37363e-06
-7.34683e-07
-3.9615e-07
-2.14197e-07
-1.10856e-07
-5.96167e-08
-3.05818e-08
-1.55928e-08
-8.18151e-09
-4.1255e-09
-2.12092e-09
-1.06147e-09
-5.23316e-10
-2.65142e-10
-1.28104e-10
-6.24188e-11
-3.05698e-11
-1.46979e-11
-7.09773e-12
-3.46322e-12
-1.61369e-12
-7.8297e-13
-3.65524e-13
-1.74006e-13
-8.11098e-14
-3.71343e-14
-1.7395e-14
-7.95082e-15
-3.61127e-15
-1.67306e-15
-7.47863e-16
-3.34552e-16
-1.50044e-16
-6.61285e-17
-2.98121e-17
-1.31379e-17
-5.87827e-18
-2.7704e-18
8.80531e-06
8.52804e-06
-1.1401e-05
-6.12588e-06
4.14068e-06
-0.000467064
-0.00104029
0.000937489
0.00978636
0.0283718
0.0213963
4.60528e-05
3.33197e-05
3.00642e-05
2.93778e-05
3.10926e-05
3.18915e-05
3.29741e-05
3.011e-05
5.07049e-05
3.76179e-31
-2.05239e-05
5.52188e-37
-5.51815e-34
1.21156e-32
1.95346e-29
-1.34929e-27
7.907e-26
-2.02703e-24
1.03172e-21
1.49745e-37
0
0
0
0
0
0
0
0
0
0
0
-3.31505e-42
3.64434e-38
8.33655e-35
-1.22492e-35
2.49696e-31
1.32257e-30
1.46402e-30
6.20256e-29
5.80605e-28
8.73738e-28
1.08511e-27
1.90567e-27
1.48934e-27
1.11692e-27
9.27934e-28
5.57464e-28
4.27545e-28
3.15052e-28
1.69019e-28
1.63768e-28
1.63111e-28
2.01686e-28
2.49206e-28
2.57272e-28
2.36187e-28
2.01609e-28
1.55967e-28
1.17744e-28
7.91137e-29
5.22423e-29
3.44599e-29
2.08376e-29
1.23248e-29
3.1214e-30
-4.55445e-30
-9.22447e-30
-8.51591e-30
-7.92325e-30
-5.64916e-30
-3.26109e-30
-1.82916e-30
-4.53695e-31
6.12363e-32
5.25926e-31
3.67248e-31
2.96967e-31
2.14384e-31
1.2208e-31
7.36245e-32
3.89262e-32
2.02876e-32
1.04054e-32
5.04687e-33
2.71779e-33
6.69239e-34
2.28275e-34
7.73146e-35
-1.42566e-34
-8.34767e-35
-1.06836e-34
-5.9516e-35
-3.56578e-35
-2.22839e-35
-1.26755e-35
-7.16047e-36
-3.72134e-36
-1.96626e-36
-9.95737e-37
-4.39136e-37
-2.18499e-37
-4.38671e-38
-1.19172e-39
2.7147e-40
7.22981e-39
5.36277e-39
4.33871e-39
2.31294e-39
1.14777e-39
7.79328e-40
4.19186e-40
2.43519e-40
1.16603e-40
5.48331e-41
2.50037e-41
1.18004e-41
5.46351e-42
1.89801e-42
-5.9581e-42
4.19968e-89
0
-5.00377e-28
-8.45926e-31
1.09141e-31
-5.74916e-34
-6.79111e-36
1.41677e-37
-1.62736e-40
-8.63804e-42
3.15226e-44
2.33733e-46
-1.65139e-48
2.36267e-51
3.2577e-53
2.82116e-55
-3.48205e-58
-2.3656e-59
-3.35654e-62
2.67606e-64
2.02542e-66
2.16512e-68
1.08432e-70
1.8085e-73
7.7905e-77
7.831e-81
6.18664e-86
0.0571151
0.065603
0.0700854
0.0652498
0.0539599
0.0373009
0.0154704
-0.0110693
-0.0391841
-0.0706723
-0.097145
-0.116796
-0.125663
-0.126817
-0.119872
-0.106628
-0.0920254
-0.0741441
-0.0592465
-0.0449788
-0.0327539
-0.0237968
-0.0165691
-0.0112485
-0.007673
-0.00494191
-0.00317566
-0.00202328
-0.00124832
-0.000779233
-0.000475631
-0.000282103
-0.000170361
-9.84825e-05
-5.78994e-05
-3.30763e-05
-1.85227e-05
-1.05824e-05
-5.7749e-06
-3.15328e-06
-1.72521e-06
-9.25561e-07
-4.96559e-07
-2.68187e-07
-1.39299e-07
-7.44951e-08
-3.83397e-08
-1.95624e-08
-1.02212e-08
-5.15614e-09
-2.65171e-09
-1.32973e-09
-6.5632e-10
-3.3163e-10
-1.60733e-10
-7.82223e-11
-3.82971e-11
-1.84421e-11
-8.89055e-12
-4.33425e-12
-2.02528e-12
-9.79115e-13
-4.57125e-13
-2.17698e-13
-1.0156e-13
-4.65692e-14
-2.17721e-14
-9.96112e-15
-4.52622e-15
-2.09293e-15
-9.35838e-16
-4.19313e-16
-1.88128e-16
-8.30126e-17
-3.73651e-17
-1.64869e-17
-7.3661e-18
-3.44353e-18
6.76632e-06
-1.71468e-05
4.43777e-05
-0.000206268
-0.00128948
-0.00202165
0.000345168
0.00817403
2.9124e-06
-8.00729e-06
-7.27943e-06
-7.37414e-06
-6.62757e-06
-5.43225e-06
-6.02672e-06
-4.96022e-06
-1.52954e-05
4.62685e-06
-8.26154e-06
1.56106e-30
-4.24982e-29
9.55291e-27
1.03523e-24
-2.13864e-22
0
0
0
0
0
0
0
0
0
0
0
-2.25527e-38
8.7185e-35
-4.39268e-34
-5.75454e-31
-2.0031e-30
-1.42097e-29
-1.63208e-28
-1.2908e-27
-2.6382e-28
-1.18048e-27
-8.42335e-28
-9.13493e-29
-3.61836e-28
3.71176e-29
-7.82635e-29
-1.21895e-28
2.18178e-29
-1.32302e-29
-1.38054e-28
-1.72414e-28
-2.1519e-28
-2.80792e-28
-1.43613e-28
-1.30141e-28
-5.72737e-29
-4.87944e-29
-3.1263e-29
-1.93268e-29
-1.40727e-29
-6.74014e-30
-7.06049e-30
-1.09891e-30
5.42175e-30
1.0386e-29
8.12983e-30
7.89694e-30
4.25504e-30
2.0679e-30
7.46861e-31
-3.1523e-31
5.14055e-31
-2.94926e-31
2.64434e-31
-1.09715e-32
1.93203e-32
7.28577e-32
4.87288e-32
1.70618e-32
1.08993e-32
5.43242e-33
2.39677e-33
2.35319e-34
1.1321e-33
-1.83247e-34
-2.34463e-34
1.90865e-35
-1.93872e-34
-9.45992e-35
-8.49752e-35
-2.63943e-35
-1.86808e-35
-1.18966e-35
-5.48526e-36
-2.7849e-36
-1.52199e-36
-7.48368e-37
-4.10672e-37
-1.37989e-37
-1.1422e-37
2.35268e-38
2.82166e-38
6.25503e-39
1.18852e-38
6.34226e-39
4.76693e-39
2.52358e-39
1.0124e-39
7.70482e-40
3.80862e-40
2.06722e-40
1.02353e-40
4.55577e-41
2.12697e-41
1.02409e-41
4.01837e-42
1.36618e-42
7.05977e-42
5.47816e-33
-1.68213e-34
7.33799e-37
1.19206e-38
-8.14173e-41
-3.49228e-43
6.29844e-45
-1.75381e-47
-2.73791e-50
3.44035e-52
2.87982e-54
1.73753e-56
-2.12141e-58
-1.41221e-60
2.05018e-63
2.17436e-65
2.16662e-67
1.71028e-69
4.94269e-72
4.36638e-75
1.01899e-78
3.24912e-83
0.0492094
0.0623134
0.0684175
0.0698011
0.0619671
0.0458073
0.0283649
0.00427892
-0.0247843
-0.0555743
-0.084336
-0.107553
-0.122261
-0.126356
-0.12456
-0.114483
-0.0993173
-0.0826223
-0.0665097
-0.0522931
-0.0390263
-0.0279666
-0.0201261
-0.0138509
-0.0093254
-0.0061296
-0.00402419
-0.00255803
-0.00160898
-0.000985567
-0.000613552
-0.000371945
-0.000219629
-0.000128701
-7.55207e-05
-4.42186e-05
-2.51403e-05
-1.40208e-05
-7.89592e-06
-4.32796e-06
-2.35225e-06
-1.28182e-06
-6.73414e-07
-3.65618e-07
-1.94413e-07
-1.02e-07
-5.3603e-08
-2.78025e-08
-1.41629e-08
-7.20895e-09
-3.69632e-09
-1.89629e-09
-9.48434e-10
-4.67075e-10
-2.33189e-10
-1.13645e-10
-5.51474e-11
-2.69512e-11
-1.27489e-11
-6.22434e-12
-2.98041e-12
-1.41051e-12
-6.65251e-13
-3.1526e-13
-1.4998e-13
-6.99098e-14
-3.18733e-14
-1.48939e-14
-6.80163e-15
-3.0822e-15
-1.38986e-15
-6.34712e-16
-2.83257e-16
-1.26801e-16
-5.58348e-17
-2.51039e-17
-1.10688e-17
-4.97038e-18
1.71191e-05
-2.67019e-06
1.39661e-05
3.72103e-05
-0.000629087
-0.00183406
-0.00135645
0.00359518
0.0146129
-7.47084e-06
-7.64704e-06
-7.13552e-06
-6.20446e-06
-6.27478e-06
-6.85737e-06
-7.6119e-06
1.11713e-05
8.66471e-37
-1.25063e-33
5.49195e-32
4.4086e-29
-2.98497e-27
1.74562e-25
-6.19233e-24
2.59636e-21
0
0
0
0
0
0
0
0
0
0
9.6306e-40
5.75762e-36
-2.18736e-34
-8.41683e-32
-3.67899e-30
-2.60555e-30
-7.61164e-29
-6.43545e-28
-2.13219e-28
-4.52535e-28
-1.25104e-27
-1.20365e-28
-3.76605e-28
7.33728e-29
8.36961e-30
-1.85879e-28
3.50647e-29
4.33949e-29
-1.09058e-28
-1.50128e-28
-2.44625e-28
-2.48699e-28
-2.32913e-28
-1.27101e-28
-2.87082e-29
-6.07661e-29
-1.89893e-29
-3.11859e-29
-1.60818e-29
-9.87052e-30
-6.42836e-30
-2.3163e-30
-3.46304e-30
7.11606e-30
9.25221e-30
7.24147e-30
5.41135e-30
2.17123e-30
4.7132e-31
-1.25453e-31
7.92209e-31
-5.35427e-31
2.45684e-31
1.41004e-31
-2.67276e-32
9.18792e-32
6.57557e-32
2.04575e-32
1.69714e-32
8.06696e-33
3.9124e-33
1.35861e-33
1.10686e-33
-1.66371e-34
-2.51272e-34
-3.82086e-35
-2.54418e-34
-1.38209e-34
-1.06634e-34
-5.22493e-35
-2.77699e-35
-1.84025e-35
-8.01181e-36
-3.57266e-36
-2.52295e-36
-9.60123e-37
-6.05631e-37
-2.90407e-37
-1.33907e-37
2.35131e-38
1.85186e-38
8.86388e-39
1.63215e-38
8.52358e-39
7.07315e-39
3.60068e-39
1.54877e-39
1.1427e-39
5.54462e-40
2.99383e-40
1.43626e-40
6.42868e-41
3.06831e-41
1.4159e-41
6.32455e-42
1.77484e-42
9.26451e-43
-9.75465e-24
-9.51173e-29
4.35835e-27
3.89134e-25
4.69348e-26
-7.68187e-06
0.0388484
1.32739e-05
-2.47538e-06
1.13499e-38
-1.35166e-32
0
0
0
0
0
0
0
0
0
0
0
0
0
0
0
0
0
0
0
0
0
0
0
0
0
0
0
0
0
0
0
0
0
0
0
0
0
0
0
0
0
0
0
0
0
0
0
0
0
0
0
0
0
0
0
0
0
0
0
0
0
0
0
0
0
0
0
0
0
0
0
0
0
0
0
0
0
0
0
0
0
0
0
0
0
0
0
0
0
0
0
0
0
0
0
0
0
0
0
0
0
0
0
0
0
0
0
0
0
0
0
0
0
0
0
0
0
0
0
0
0
0
0
0
0
0
0
0
0
0
0
0
0
0
0
0
0
0
0
0
0
0
0
0
0
0
0
0
0
0
0
0
0
0
0
0
0
0
0
0
0
0
0
0
0
0
0
0
0
0
0
0
0
0
0
0
0
0
0
0
0
0
0
0
0
0
0
0
0
0
0
0
0
0
0
0
0
1.72266e-06
0
0
0
0
0
0
0
0
0
0
0
0
0
0
0
0
0
0
0
0
0
0
0
0
0
0
0
0
0
0
0
0
0
0
0
0
0
0
0
0
0
0
0
0
0
0
0
0
0
0
0
0
0
0
0
0
0
0
0
0
0
0
0
0
0
0
0
0
0
0
0
0
0
0
0
0
0
0
0
0
0
0
0
0
0
0
0
0
0
0
0
0
0
0
0
0
0
0
0
0
0
0
0
0
0
0
0
0
0
0
0
0
0
0
0
0
1.56912e-141
1.96759e-141
4.378e-141
-1.52762e-140
1.36694e-140
-4.63727e-140
-1.21084e-137
-6.81286e-139
1.85626e-134
-1.39494e-134
1.13698e-131
3.65393e-132
1.08755e-131
3.08088e-132
8.74902e-130
1.00469e-129
7.53377e-130
8.13201e-130
6.02527e-130
4.77189e-130
2.35301e-128
2.40577e-128
3.89581e-128
4.12068e-128
1.09896e-127
-2.3745e-127
4.31311e-127
2.85784e-127
7.14125e-127
7.3784e-127
9.01916e-127
9.34261e-127
5.92907e-127
6.14682e-127
9.1842e-127
7.41428e-127
5.9995e-127
4.78705e-127
4.19443e-127
2.54951e-127
1.16844e-126
6.37825e-127
6.25531e-125
6.21934e-125
1.12394e-124
-1.45963e-125
1.02349e-122
1.01801e-122
1.85017e-122
1.91886e-122
1.29655e-122
1.05615e-122
4.19223e-122
-4.39597e-123
1.32459e-121
1.28245e-121
1.10745e-121
7.24804e-122
3.51938e-120
3.53732e-120
2.57882e-120
2.32058e-120
1.73397e-120
1.51455e-120
4.0652e-120
-9.5604e-120
5.13468e-119
3.88099e-119
1.15239e-118
8.68612e-119
2.33489e-118
2.12257e-118
1.37953e-117
1.00194e-117
9.3769e-118
6.48541e-118
6.91669e-118
4.24322e-118
3.94174e-117
3.92423e-117
2.75998e-117
2.66248e-117
1.8949e-117
1.78835e-117
6.52902e-117
5.88702e-117
7.83514e-117
7.20645e-117
9.52463e-117
-8.10152e-117
8.81598e-117
-4.66372e-117
3.92787e-116
3.73941e-116
1.54573e-115
-3.82584e-115
4.49162e-114
4.38055e-114
3.09965e-114
2.36926e-114
2.17892e-114
1.46765e-114
1.62285e-114
9.23958e-115
1.13253e-113
1.10285e-113
8.96958e-114
8.48491e-114
6.28847e-114
5.51798e-114
2.63342e-113
2.20517e-113
4.04814e-113
3.80699e-113
2.89003e-113
2.07765e-113
6.1198e-113
1.90624e-114
2.42177e-112
2.20172e-112
1.79239e-112
1.21796e-112
4.67106e-112
5.16846e-112
3.08545e-112
3.02989e-112
2.04939e-112
1.91659e-112
1.44896e-112
8.84562e-113
1.73354e-112
1.4319e-112
3.76214e-112
3.59337e-112
2.73452e-112
2.11834e-112
1.8346e-111
1.61808e-111
2.17403e-111
2.08977e-111
1.48191e-111
1.38008e-111
1.45179e-111
7.18418e-112
2.54623e-111
2.44388e-111
2.01488e-111
7.55077e-112
4.36718e-111
4.43878e-111
2.926e-111
2.85045e-111
1.92991e-111
1.84952e-111
1.61133e-111
1.3735e-111
1.11753e-111
8.40131e-112
1.11358e-111
-1.62053e-112
1.79663e-110
1.65888e-110
1.34881e-110
5.92589e-111
2.22775e-110
1.83482e-110
1.61482e-110
1.06186e-110
7.52764e-110
6.87579e-110
5.55865e-110
5.08381e-110
3.78934e-110
3.5027e-110
5.5831e-110
5.10667e-110
5.70111e-110
5.5103e-110
9.0166e-110
-1.24244e-109
3.18598e-109
2.30451e-109
4.89829e-109
4.99008e-109
3.29377e-109
3.2289e-109
3.56325e-109
3.68141e-109
2.49382e-109
2.12107e-109
3.22414e-109
3.26327e-109
2.16643e-109
2.0237e-109
6.56913e-109
6.3719e-109
4.92625e-109
4.70031e-109
3.36128e-109
3.15926e-109
6.14949e-109
5.5438e-109
6.82649e-109
6.68975e-109
4.59971e-109
4.39354e-109
4.40886e-109
2.24268e-109
5.68985e-109
5.1252e-109
5.09738e-109
3.18434e-109
3.491e-109
2.34134e-109
2.66421e-109
1.16196e-109
4.81766e-109
4.47481e-109
3.23174e-109
2.8718e-109
3.20028e-109
3.02349e-109
3.59811e-109
3.81724e-109
2.34466e-109
2.43822e-109
3.66768e-109
3.6593e-109
3.33269e-109
3.40405e-109
2.19336e-109
2.23932e-109
1.60341e-109
1.23199e-109
1.72084e-109
1.68795e-109
1.17707e-109
1.05019e-109
1.8269e-109
1.57176e-109
1.60987e-109
1.49082e-109
1.06333e-109
1.01478e-109
7.92771e-110
7.95244e-110
5.79654e-110
5.71347e-110
5.83734e-110
-1.03496e-110
3.03575e-109
2.88164e-109
2.17191e-109
1.80419e-109
1.47358e-109
1.22547e-109
1.00386e-109
8.33072e-110
2.01229e-109
2.01195e-109
3.00952e-109
3.47004e-109
1.3492e-104
-7.69673e-107
1.87587e-100
2.38218e-100
1.2447e-100
1.39545e-100
3.97536e-101
-3.84344e-102
3.06692e-96
-1.17795e-96
8.12625e-93
4.42434e-93
3.23973e-90
3.97566e-90
2.21454e-90
4.15984e-89
2.72711e-90
-1.11475e-28
3.84175e-23
3.12793e-21
-9.55795e-20
-2.15546e-19
4.19671e-21
5.578e-26
4.3087e-25
1.183e-25
1.28708e-31
-2.56393e-05
-6.65026e-34
-8.08133e-36
1.66468e-37
-1.80432e-40
-1.00728e-41
3.66822e-44
2.66446e-46
-1.87901e-48
2.72298e-51
3.81474e-53
3.35407e-55
-4.27302e-58
-2.76202e-59
-3.82466e-62
3.14007e-64
2.40669e-66
2.57429e-68
1.26663e-70
2.09876e-73
8.72296e-77
8.52797e-81
6.26791e-86
1.26377e-88
0.00918899
3.2623e-05
0.00510424
-0.000565458
-0.00589924
-0.0116448
-0.0180662
-0.023109
-0.0283544
-0.0338624
-0.0363019
-0.0353877
-0.0325338
-0.0265089
-0.0183256
-0.0143982
-0.00927312
-0.0051069
-0.00251511
-0.000638245
-0.000532569
0.000123529
0.000635667
0.000408759
0.000349213
0.000246925
0.000245011
0.000145969
8.99204e-05
7.74464e-05
6.54426e-05
3.44452e-05
2.06119e-05
1.08739e-05
7.01371e-06
4.48068e-06
2.04601e-06
1.10801e-06
5.18604e-07
3.01069e-07
1.5517e-07
6.85007e-08
3.25971e-08
2.83284e-08
1.13097e-08
6.8545e-09
3.23117e-09
1.34181e-09
6.87395e-10
1.99997e-10
1.17092e-10
7.51289e-11
1.04702e-11
1.24758e-12
-4.44122e-12
-2.16449e-12
-1.39176e-12
-1.28165e-12
-7.67931e-13
-2.06001e-13
-1.8164e-13
-7.43225e-14
-3.89092e-14
-2.1658e-14
-7.70598e-15
-5.42691e-15
-3.41708e-15
-1.35546e-15
-7.46208e-16
-3.8475e-16
-2.16152e-16
-9.21634e-17
-4.61646e-17
-2.40767e-17
-9.81506e-18
-3.79748e-18
-1.8923e-18
-9.93739e-19
-6.57291e-19
-5.66264e-05
-1.85164e-18
1.92064e-30
-2.13806e-05
2.7754e-05
0.000118717
-0.000318466
-0.000791812
1.91497e-06
0.00276779
0.00635923
-1.74299e-05
-1.15086e-06
-1.71089e-05
0.00890568
-2.01315e-05
1.07349e-06
2.07227e-06
1.33165e-38
-1.75088e-05
-1.70902e-05
-1.68769e-05
-1.68586e-05
-1.71998e-05
-1.41167e-05
-1.76396e-05
2.34511e-06
-3.11207e-06
5.44492e-06
4.34718e-31
2.74159e-31
0.00939687
-0.00268237
-5.83463e-28
-2.48617e-28
3.5857e-05
-6.23284e-05
-1.26042e-06
-7.06132e-05
-3.59991e-05
-5.52915e-06
-6.30103e-06
0.000100312
8.45514e-05
0.000150303
0.000185078
4.51281e-05
0.000195953
-0.000205675
9.97551e-05
-0.000503035
-0.000101884
-0.000689605
-0.000298267
-0.000641685
-0.000445046
-0.000185279
-0.000468474
0.000742503
-0.000238444
0.00208788
0.000194812
0.00371669
0.000601497
0.00555638
0.00125408
0.00706868
0.00160733
0.0081569
0.00177056
0.00957565
0.0010799
0.00935123
0.000481119
0.00909743
-0.000857587
0.00771136
-0.00187212
0.00611148
-0.00417204
0.00385086
-0.00567765
0.000979845
-0.00781258
-0.00209294
-0.00982195
-0.00489987
-0.0117357
-0.00729449
-0.0131725
-0.0104991
-0.0141372
-0.0129195
-0.0149207
-0.0144329
-0.0154644
-0.0166971
-0.0154491
-0.0186018
-0.0154357
-0.0209616
-0.0155638
-0.0235059
-0.0155051
-0.0251437
-0.014767
-0.0273326
-0.0150443
-0.0281905
-0.013809
-0.0287228
-0.0117949
-0.0279506
-0.0106576
-0.0279214
-0.00717255
-0.0281477
-0.00583015
-0.0267557
-0.00554711
-0.0247832
-0.00294365
-0.0217076
-0.00066432
-0.0199154
0.00242768
-0.017105
0.00321917
-0.0133605
0.0048941
-0.0117117
0.00813012
-0.00843475
0.00724676
-0.00565648
0.00912297
-0.00487054
0.0106408
-0.00362718
0.00938497
-0.00164827
0.00907372
-0.00125048
0.00981037
-0.000249984
0.00839952
0.000583076
0.00826772
0.00132713
0.00778734
0.00137028
0.00746861
0.00156866
0.00650901
0.00192708
0.00594766
0.00142805
0.005582
0.00159914
0.00436704
0.00159029
0.00396015
0.0012083
0.00356655
0.00106171
0.00278832
0.00103818
0.00234696
0.000763423
0.00208773
0.000743983
0.00159221
0.000674107
0.00137561
0.000538505
0.00117847
0.000486276
0.000913327
0.000360982
0.000804944
0.000246304
0.000602227
0.000211036
0.000438998
0.000181393
0.00036472
0.000157134
0.000296939
0.000117203
0.000249225
9.4336e-05
0.000185555
8.09533e-05
0.000146901
5.62528e-05
0.000121142
4.87447e-05
8.72303e-05
4.01292e-05
7.05192e-05
3.00215e-05
5.67584e-05
2.49114e-05
4.17587e-05
1.74318e-05
3.46171e-05
1.14325e-05
2.44989e-05
9.21306e-06
1.69814e-05
7.40164e-06
1.34396e-05
6.00086e-06
1.04371e-05
4.40023e-06
8.24416e-06
3.45217e-06
6.04082e-06
2.82978e-06
4.73255e-06
1.87529e-06
3.71964e-06
1.53091e-06
2.55187e-06
1.19281e-06
1.97711e-06
7.93207e-07
1.53641e-06
5.9118e-07
1.04738e-06
4.7135e-07
7.80671e-07
3.19324e-07
6.03989e-07
2.47762e-07
4.18201e-07
1.91196e-07
3.19675e-07
1.48353e-07
2.40598e-07
1.04659e-07
1.83564e-07
7.91985e-08
1.29853e-07
6.20595e-08
9.86526e-08
4.00636e-08
7.50412e-08
3.13702e-08
4.96488e-08
2.35374e-08
3.71918e-08
1.52126e-08
2.79871e-08
1.10678e-08
1.85218e-08
8.50014e-09
1.34788e-08
5.39256e-09
1.0129e-08
4.19251e-09
6.66702e-09
3.1326e-09
4.95163e-09
2.13866e-09
3.67378e-09
1.61822e-09
2.49332e-09
1.02176e-09
1.90251e-09
6.10796e-10
1.22214e-09
4.5703e-10
7.70979e-10
3.40962e-10
5.69127e-10
2.56947e-10
4.14734e-10
1.63774e-10
3.0999e-10
1.1769e-10
2.00236e-10
8.86681e-11
1.42966e-10
5.34674e-11
1.05613e-10
4.10459e-11
6.67747e-11
3.0131e-11
4.87633e-11
1.59192e-11
3.57785e-11
1.1696e-11
2.03633e-11
9.00836e-12
1.49862e-11
5.48736e-12
1.10119e-11
4.06844e-12
6.97333e-12
2.99376e-12
5.07122e-12
2.22358e-12
3.64248e-12
1.45911e-12
2.64958e-12
1.05866e-12
1.75183e-12
7.95478e-13
1.27416e-12
4.53467e-13
9.22988e-13
3.41157e-13
5.54853e-13
2.45862e-13
3.97666e-13
1.39104e-13
2.86212e-13
9.48895e-14
1.70367e-13
7.09445e-14
1.17454e-13
4.13209e-14
8.5049e-14
3.0202e-14
5.16426e-14
2.19383e-14
3.70095e-14
1.60762e-14
2.6227e-14
1.03949e-14
1.87964e-14
7.45303e-15
1.22167e-14
5.56064e-15
8.75528e-15
3.93581e-15
6.13627e-15
2.40383e-15
4.37844e-15
1.64676e-15
2.73314e-15