/*--------------------------------*- C++ -*----------------------------------*\
  =========                 |
  \\      /  F ield         | OpenFOAM: The Open Source CFD Toolbox
   \\    /   O peration     | Website:  https://openfoam.org
    \\  /    A nd           | Version:  7
     \\/     M anipulation  |
\*---------------------------------------------------------------------------*/
FoamFile
{
    version     2.0;
    format      ascii;
    class       volScalarField;
    location    "0.36";
    object      T;
}
// * * * * * * * * * * * * * * * * * * * * * * * * * * * * * * * * * * * * * //

dimensions      [0 0 0 1 0 0 0];

internalField   nonuniform List<scalar> 
46572
(
0
0
0
0
0
0
0
0
0
0
0
0
0
0
0
0
0
0
0
0
0
0
0
0
0
0
0
0
0
0
0
0
0
0
0
0
0
0
0
0
0
0
0
0
0
0
0
0
0
0
0
0
0
0
0
0
0
0
0
0
0
0
0
0
0
0
0
0
0
0
0
0
0
0
0
0
0
0
0
0
0
0
0
0
0
0
0
0
0
0
0
0
0
0
0
0
0
0
0
0
0
0
0
0
0
0
0
0
0
0
0
0
0
0
0
0
0
0
0
0
0
0
0
0
0
0
0
0
0
0
0
0
0
0
0
0
0
0
0
0
0
0
0
0
0
0
0
0
0
0
0
0
0
0
0
0
0
0
0
0
0
0
0
0
0
0
0
0
0
0
0
0
0
0
0
0
0
0
0
0
0
0
0
0
0
0
0
0
0
0
0
0
0
0
0
0
0
0
0
0
0
0
0
0
0
0
0
0
0
0
0
0
0
0
0
0
0
0
0
0
0
0
0
0
0
0
0
0
0
0
0
0
0
0
0
0
0
0
0
0
0
0
0
0
0
0
0
0
0
0
0
0
0
0
0
0
0
0
0
0
0
0
0
0
0
0
0
0
0
0
0
0
0
0
0
0
0
0
0
0
0
0
0
0
0
0
0
0
0
0
0
0
0
0
0
0
0
0
0
0
0
2.71698e-144
3.39623e-144
1.06811e-142
1.1001e-142
-5.09333e-140
-6.91274e-140
-1.76405e-139
1.27698e-139
-2.3754e-136
-2.88898e-136
-1.05075e-134
-1.28942e-134
-6.823e-135
-8.37553e-135
-4.53302e-135
-6.29289e-135
6.61502e-134
5.85903e-134
5.27921e-134
6.40664e-136
7.32177e-134
-1.6541e-134
-3.02556e-132
1.03686e-131
-1.9348e-129
1.04595e-129
-4.37671e-127
-4.23644e-127
-5.01718e-127
-4.24706e-127
-1.0821e-124
-1.23059e-124
-2.68893e-124
-3.28336e-124
-1.71617e-124
-2.11015e-124
-2.85587e-124
4.78626e-124
-4.38136e-123
-4.06969e-123
-1.12956e-122
-9.72321e-123
-4.92701e-122
-3.15593e-122
-4.43094e-122
-2.26204e-123
-4.0558e-121
-4.49606e-121
-2.63185e-121
-2.90428e-121
-1.79633e-121
-1.61277e-121
-2.43012e-121
-2.6376e-121
-1.60437e-121
-1.7392e-121
-9.65984e-122
-8.27543e-122
1.0047e-120
8.26863e-121
3.18263e-121
-3.44844e-121
1.89027e-119
-6.64846e-119
1.74478e-118
5.63771e-119
2.36579e-118
1.73822e-118
3.30894e-118
-5.32919e-120
5.42684e-118
-6.71225e-118
4.54487e-117
4.85939e-117
8.0053e-117
-1.50409e-116
1.97788e-116
6.38204e-117
1.4479e-116
5.50926e-117
1.37212e-116
-1.44046e-116
7.02304e-116
-2.33649e-115
8.07606e-115
2.62246e-115
4.9983e-114
4.7414e-114
1.75994e-113
1.51392e-113
1.2283e-113
1.04103e-113
8.67898e-114
6.82146e-114
3.0174e-113
1.74687e-113
5.27753e-113
5.23211e-113
3.48703e-113
3.35598e-113
3.00846e-113
-3.22097e-115
6.13668e-113
3.19876e-113
5.77064e-113
1.49468e-113
4.6847e-113
5.55568e-114
7.43221e-113
-1.0812e-112
1.41279e-111
9.65114e-112
1.75654e-110
7.22185e-111
1.30233e-110
5.67558e-111
9.83256e-111
4.57337e-111
7.56266e-111
3.12053e-111
4.58703e-110
2.20101e-110
8.89549e-110
8.433e-110
5.90181e-110
5.37711e-110
5.47219e-110
-1.51192e-110
1.3632e-109
4.51425e-110
1.69516e-109
1.19048e-109
1.97521e-109
7.15961e-110
2.49701e-109
-3.19521e-109
4.44998e-109
6.88649e-110
1.13281e-108
2.43619e-109
8.69469e-109
2.87871e-109
1.15675e-108
9.28605e-109
8.10053e-109
6.33622e-109
6.27664e-109
2.98714e-109
3.07874e-108
2.94279e-108
2.02727e-108
1.83638e-108
2.17106e-108
-1.63715e-108
5.09569e-108
1.28662e-108
5.96116e-108
3.90339e-108
5.41764e-108
3.2718e-108
4.62085e-108
-2.86288e-109
5.51041e-108
2.00364e-108
5.4764e-108
-2.89405e-108
6.7219e-108
1.85435e-108
6.76795e-108
4.09414e-108
4.99253e-108
2.49022e-108
4.44781e-108
2.92464e-108
4.9902e-108
3.80687e-108
1.43104e-107
-1.67545e-107
4.77328e-107
3.42517e-107
3.91079e-107
5.25293e-108
3.14915e-107
6.05068e-108
1.40727e-106
4.86265e-107
2.52661e-106
2.25988e-106
1.69787e-106
1.46461e-106
1.28478e-106
5.9111e-107
1.65864e-106
1.06384e-106
2.31612e-106
1.13833e-106
5.56082e-106
1.82649e-106
5.07023e-106
-1.62598e-106
4.12675e-106
-3.20534e-107
3.66308e-106
-1.46835e-106
3.09018e-106
-5.6403e-107
5.75139e-106
1.50401e-106
4.47624e-106
1.58081e-106
1.40151e-105
6.45321e-106
2.36642e-105
2.16379e-105
1.58166e-105
1.39659e-105
1.22701e-105
4.27601e-106
1.64968e-105
8.395e-106
1.67755e-105
1.25409e-105
1.35041e-105
8.60821e-106
1.11163e-105
3.19384e-106
2.38238e-105
2.10581e-105
1.62574e-105
1.39354e-105
1.3737e-105
1.19949e-105
2.21254e-105
1.94455e-105
1.50942e-105
1.31661e-105
1.08379e-105
7.55102e-106
2.30855e-105
2.2767e-105
1.5249e-105
1.47008e-105
1.1e-105
6.72961e-106
1.09609e-105
7.38282e-106
9.74364e-106
7.93902e-106
7.04091e-106
5.61327e-106
5.25919e-106
3.06755e-106
8.59212e-106
8.5727e-106
6.2201e-106
4.0952e-106
6.24583e-106
4.55329e-106
4.73286e-106
3.62639e-106
3.35034e-106
2.45817e-106
2.35371e-106
1.63998e-106
3.3713e-106
2.90241e-106
7.47227e-106
3.7626e-106
5.43799e-106
2.67726e-106
3.90436e-106
2.01845e-106
8.26446e-104
-1.23021e-106
9.10063e-101
1.07398e-100
-7.52458e-99
-8.52271e-99
-2.41261e-97
-3.44324e-97
1.84235e-95
-6.36583e-95
5.35205e-95
-1.70534e-94
-1.06421e-92
2.14989e-93
1.43651e-88
-5.29287e-90
6.65475e-86
3.32331e-86
5.04517e-84
5.88756e-84
1.17173e-83
3.59475e-84
1.36463e-81
-9.98839e-16
-4.9176e-16
4.25523e-18
-1.26696e-20
1.37127e-22
-1.39297e-24
6.66561e-26
-2.8935e-28
3.05883e-30
1.3351e-32
-6.50834e-34
7.21228e-36
-3.71119e-38
-2.007e-40
3.32806e-42
-1.63068e-44
2.9291e-47
2.02523e-49
-1.17524e-51
-8.21083e-54
-6.04551e-56
1.23707e-57
7.55711e-61
-4.08367e-62
-6.42376e-65
-1.07389e-67
5.30702e-69
4.08714e-71
8.01314e-74
3.34945e-77
-1.19721e-15
0.00537978
0.0157764
0.0330917
0.0575425
0.0883998
0.121606
0.150622
0.178118
0.196316
0.204775
0.20089
0.187491
0.162049
0.128056
0.0895706
0.047797
0.008828
-0.0220166
-0.0469811
-0.0635888
-0.0728635
-0.0746985
-0.0677607
-0.0620233
-0.0524534
-0.0424567
-0.0334824
-0.0261424
-0.019446
-0.0141427
-0.00992463
-0.00714282
-0.00496803
-0.00332425
-0.00219679
-0.00145416
-0.000962094
-0.000616267
-0.000382073
-0.000240787
-0.000146973
-8.92333e-05
-5.38072e-05
-3.10759e-05
-1.87427e-05
-1.10296e-05
-6.36944e-06
-3.69901e-06
-2.11859e-06
-1.18456e-06
-6.60544e-07
-3.72391e-07
-2.10265e-07
-1.15611e-07
-6.21382e-08
-3.40595e-08
-1.82009e-08
-9.66129e-09
-5.1617e-09
-2.65563e-09
-1.42283e-09
-7.45751e-10
-3.85151e-10
-1.98428e-10
-1.03044e-10
-5.36222e-11
-2.74091e-11
-1.35871e-11
-6.9579e-12
-3.47329e-12
-1.71606e-12
-8.4649e-13
-4.233e-13
-2.06461e-13
-1.00976e-13
-4.85304e-14
-2.39222e-14
-1.1546e-14
-5.70703e-15
-2.23992e-15
-1.40959e-15
7.96313e-07
2.94937e-07
1.13897e-06
-1.11511e-05
3.65337e-06
3.05435e-05
-7.51362e-05
-0.00037201
-0.000489888
0.000851485
0.00261522
0.000441111
-1.95967e-06
2.58659e-06
2.38796e-06
2.29393e-06
2.18042e-06
2.00819e-06
2.06667e-06
1.83003e-06
4.10791e-06
-2.19532e-06
1.34263e-06
2.55199e-06
5.85986e-06
-4.81927e-06
-3.43295e-06
3.13221e-06
6.71279e-08
1.04985e-06
2.92252e-06
-6.30771e-06
-1.06754e-06
-1.6079e-05
-7.62619e-06
-1.87967e-05
-1.63118e-05
-7.9255e-06
-1.37628e-05
1.10673e-05
-5.27135e-06
2.98928e-05
1.03159e-05
1.92652e-05
1.4533e-05
-2.80498e-05
-9.2462e-06
-0.00012746
-7.99638e-05
-0.000266911
-0.000220106
-0.000390336
-0.000423799
-0.000366207
-0.00066314
1.02094e-05
-0.000911834
0.00104839
-0.00112026
0.00276361
-0.00093113
0.0043406
0.000541074
0.00804248
0.00157141
0.0132143
0.00376066
0.019991
0.00679916
0.0287465
0.0109226
0.0390442
0.0160351
0.0510306
0.0217752
0.0637308
0.0285776
0.0784513
0.0352233
0.0927801
0.0429268
0.106928
0.0491368
0.120841
0.0545753
0.134531
0.0610182
0.146832
0.0657557
0.159417
0.0703579
0.168773
0.0735911
0.175483
0.0731011
0.181756
0.0734825
0.183693
0.0700119
0.183569
0.0644567
0.18254
0.0587781
0.175797
0.0507036
0.169856
0.0414948
0.160138
0.033188
0.147102
0.0214804
0.13294
0.00774034
0.116459
-0.00609728
0.09926
-0.020945
0.0797044
-0.0348838
0.0615715
-0.0502672
0.041111
-0.0633044
0.0235519
-0.0764325
0.00692381
-0.0880957
-0.0105428
-0.0982987
-0.0256404
-0.106941
-0.0364842
-0.113522
-0.0484799
-0.118274
-0.0573123
-0.121096
-0.0639598
-0.122178
-0.0679286
-0.120972
-0.0704378
-0.119374
-0.0723393
-0.115497
-0.0706122
-0.110421
-0.0714936
-0.105201
-0.0672801
-0.098364
-0.0634172
-0.0910027
-0.0605094
-0.0845197
-0.0567129
-0.0776167
-0.0512351
-0.0700062
-0.0479004
-0.0633793
-0.0425758
-0.0562216
-0.0375374
-0.049588
-0.03379
-0.0438654
-0.0291408
-0.0378857
-0.0256883
-0.033189
-0.0227355
-0.0290644
-0.0196765
-0.0250655
-0.0169633
-0.0214726
-0.014329
-0.0182082
-0.0122903
-0.0155105
-0.010495
-0.0131364
-0.00869475
-0.0109432
-0.00740975
-0.00921335
-0.00608471
-0.00759677
-0.00500597
-0.00624788
-0.00418916
-0.00517565
-0.00336248
-0.00418763
-0.00277696
-0.00344686
-0.0022983
-0.00284363
-0.00187316
-0.00231417
-0.00152184
-0.00187573
-0.0012241
-0.00150962
-0.000985789
-0.00121813
-0.000795172
-0.000979063
-0.000630129
-0.000778134
-0.000511539
-0.000625309
-0.000400225
-0.000492222
-0.000315106
-0.000387461
-0.000251194
-0.000308088
-0.000199324
-0.000243884
-0.000154278
-0.00018973
-0.000122362
-0.000149583
-9.56355e-05
-0.000116864
-7.45885e-05
-9.11105e-05
-5.76827e-05
-7.06283e-05
-4.48159e-05
-5.48934e-05
-3.48739e-05
-4.26214e-05
-2.67483e-05
-3.27418e-05
-2.08973e-05
-2.54134e-05
-1.57911e-05
-1.93035e-05
-1.20008e-05
-1.46843e-05
-9.25352e-06
-1.12962e-05
-7.10582e-06
-8.66243e-06
-5.33621e-06
-6.53007e-06
-4.10264e-06
-4.99999e-06
-3.06837e-06
-3.75227e-06
-2.30055e-06
-2.81657e-06
-1.75219e-06
-2.13518e-06
-1.29126e-06
-1.58189e-06
-9.77004e-07
-1.19573e-06
-7.41354e-07
-9.06866e-07
-5.56134e-07
-6.80286e-07
-4.1652e-07
-5.09103e-07
-3.08922e-07
-3.78309e-07
-2.311e-07
-2.83178e-07
-1.73155e-07
-2.11665e-07
-1.26674e-07
-1.55543e-07
-9.52252e-08
-1.16236e-07
-6.94939e-08
-8.51765e-08
-5.09926e-08
-6.25348e-08
-3.79596e-08
-4.6498e-08
-2.79429e-08
-3.42347e-08
-2.02816e-08
-2.49104e-08
-1.50348e-08
-1.84197e-08
-1.10225e-08
-1.35077e-08
-8.07984e-09
-9.89509e-09
-5.8828e-09
-7.21596e-09
-4.29574e-09
-5.27301e-09
-3.14572e-09
-3.85547e-09
-2.27151e-09
-2.78865e-09
-1.66931e-09
-2.0434e-09
-1.19642e-09
-1.4684e-09
-8.61175e-10
-1.0575e-09
-6.27223e-10
-7.69275e-10
-4.55916e-10
-5.58787e-10
-3.24908e-10
-3.9936e-10
-2.36156e-10
-2.89712e-10
-1.69703e-10
-2.08268e-10
-1.21925e-10
-1.49596e-10
-8.72011e-11
-1.07057e-10
-6.2444e-11
-7.67865e-11
-4.48476e-11
-5.507e-11
-3.16899e-11
-3.89511e-11
-2.23314e-11
-2.7456e-11
-1.60658e-11
-1.97419e-11
-1.14826e-11
-1.41121e-11
-8.21606e-12
-1.00989e-11
-5.87184e-12
-7.21175e-12
-4.11361e-12
-5.06508e-12
-2.94518e-12
-3.61622e-12
-2.06083e-12
-2.5338e-12
-1.4424e-12
-1.77664e-12
-1.02386e-12
-1.25876e-12
-7.08101e-13
-8.72211e-13
-5.00871e-13
-6.16925e-13
-3.55685e-13
-4.3794e-13
-2.50208e-13
-3.08233e-13
-1.75878e-13
-2.16616e-13
-1.2315e-13
-1.51806e-13
-8.6298e-14
-1.06457e-13
-6.07033e-14
-7.47516e-14
-4.19408e-14
-5.17545e-14
-2.96033e-14
-3.6466e-14
-2.05936e-14
-2.53962e-14
-1.43993e-14
-1.7738e-14
-1.01033e-14
-1.24125e-14
-6.95519e-15
-8.53134e-15
-4.66099e-15
-5.74467e-15
-3.27027e-15
-4.05242e-15
-2.4791e-15
-1.64163e-15
-2.97972e-15
-8.26292e-37
5.21576e-35
-7.9527e-32
1.97877e-29
2.05549e-27
-2.33343e-26
-1.14532e-23
3.11338e-22
5.30962e-20
2.01855e-17
-9.90201e-17
5.49261e-17
-3.0337e-16
0
0
0
0
0
0
0
0
0
0
0
-2.08918e-33
-1.50557e-31
1.3871e-30
6.63925e-30
1.25463e-28
-1.16454e-27
1.52933e-28
2.67382e-27
4.32981e-27
-4.44356e-27
-2.98848e-27
-8.22063e-27
-6.99051e-27
-6.84993e-27
2.41164e-27
4.64678e-27
8.01577e-27
1.35909e-26
1.1718e-26
7.53449e-27
5.13232e-27
3.49752e-27
2.27243e-27
8.60244e-28
5.3027e-29
-6.02095e-28
-4.96451e-28
-3.5914e-28
-2.69095e-28
-1.1802e-28
-1.16997e-29
7.00088e-29
1.32369e-28
1.55781e-28
1.39969e-28
6.52559e-29
2.22351e-29
-4.41947e-29
-9.42242e-29
-9.96589e-29
-7.96957e-29
-3.83864e-29
-2.54885e-29
4.73118e-31
3.20721e-30
7.0153e-30
7.34918e-30
5.44106e-30
3.50281e-30
2.18716e-30
1.26997e-30
7.78754e-31
4.51736e-31
2.5634e-31
6.71331e-32
3.71971e-32
1.8626e-32
-1.49889e-32
-8.78212e-33
-1.28902e-32
-8.35759e-33
-6.20374e-33
-4.28923e-33
-2.73261e-33
-1.7305e-33
-9.57196e-34
-5.18719e-34
-2.97322e-34
-1.55818e-34
-6.81155e-35
-2.64637e-37
2.61953e-36
6.2507e-36
7.14596e-36
4.53901e-36
3.53505e-36
1.92871e-36
9.95517e-37
6.75325e-37
3.73687e-37
2.00446e-37
1.03753e-37
5.28271e-38
2.7653e-38
1.37423e-38
6.29736e-39
1.44333e-39
3.85809e-40
2.98926e-38
1.69923e-81
7.73322e-20
-3.60082e-20
-5.5684e-17
-1.41402e-17
8.43723e-18
-3.56128e-20
3.51673e-21
-4.49173e-23
2.49332e-25
-4.10885e-27
-3.41598e-29
6.77017e-31
-9.2809e-33
3.7343e-35
4.04446e-37
-3.51161e-39
5.14158e-42
1.85475e-43
-1.63513e-45
7.76754e-48
-9.01475e-51
-7.41052e-53
-1.11073e-54
5.44752e-57
9.54364e-59
-4.38478e-61
-1.85925e-63
-3.21077e-66
2.34413e-68
5.79295e-70
2.07361e-72
2.06963e-75
1.69785e-06
3.55624e-79
0.00960572
0.0237131
0.0445394
0.0725284
0.103552
0.135894
0.164801
0.186537
0.199679
0.205176
0.194811
0.175064
0.146534
0.110207
0.0689003
0.0294014
-0.00540945
-0.0383373
-0.0569652
-0.0691583
-0.07254
-0.0694262
-0.0650706
-0.0556327
-0.0463558
-0.0385889
-0.0292468
-0.0220105
-0.0164004
-0.0116479
-0.00844954
-0.0058812
-0.00397102
-0.00275406
-0.00179035
-0.00118586
-0.000758136
-0.00047485
-0.000305373
-0.000184281
-0.00011178
-6.84703e-05
-4.0543e-05
-2.4206e-05
-1.44708e-05
-8.254e-06
-4.90888e-06
-2.76674e-06
-1.55178e-06
-8.97897e-07
-4.96528e-07
-2.80333e-07
-1.53829e-07
-8.31099e-08
-4.62565e-08
-2.44192e-08
-1.30263e-08
-6.98997e-09
-3.67505e-09
-1.94109e-09
-1.03702e-09
-5.27514e-10
-2.805e-10
-1.42938e-10
-7.44001e-11
-3.79034e-11
-1.89551e-11
-9.7102e-12
-4.84838e-12
-2.40612e-12
-1.22175e-12
-5.95823e-13
-2.9117e-13
-1.42912e-13
-6.88314e-14
-3.40045e-14
-1.6373e-14
-8.04694e-15
-4.1936e-15
-4.16001e-07
-3.68885e-06
4.81457e-06
-6.18444e-06
-5.21141e-06
2.3336e-05
6.04582e-06
-0.0002068
-0.000510033
-0.000107908
-0.000555944
6.33262e-07
2.58126e-06
2.25071e-06
2.35147e-06
2.20176e-06
2.17241e-06
2.24793e-06
1.96139e-06
1.35312e-06
-5.75526e-28
-5.68593e-07
1.03371e-33
-3.42269e-32
1.55753e-28
-6.99392e-26
2.7315e-24
-8.57002e-23
1.87915e-20
-5.39664e-18
-1.42111e-31
0
0
0
0
0
0
0
0
0
0
-4.84419e-35
3.28006e-33
1.48647e-31
2.8878e-29
1.63122e-30
-4.42343e-28
-8.05698e-28
-1.65968e-28
2.15179e-27
3.21483e-27
8.45049e-29
-6.75473e-27
-8.23685e-27
-1.10971e-26
-5.45103e-27
2.72262e-27
3.72767e-27
1.19973e-26
1.32772e-26
9.51655e-27
7.13141e-27
4.14048e-27
2.89207e-27
1.38748e-27
3.01105e-28
-1.92955e-28
-5.72368e-28
-4.90949e-28
-3.10919e-28
-2.05583e-28
-6.39397e-29
2.83384e-29
9.08829e-29
1.43867e-28
1.68142e-28
1.23622e-28
3.99421e-29
-3.63871e-30
-7.31382e-29
-9.50778e-29
-8.57047e-29
-6.93853e-29
-3.5408e-29
-1.71106e-29
3.90218e-30
5.0316e-30
7.26072e-30
6.46233e-30
4.13065e-30
2.94522e-30
1.62328e-30
9.8247e-31
5.83038e-31
3.18542e-31
1.93924e-31
5.48251e-32
2.7026e-32
1.11144e-32
-1.2566e-32
-6.91287e-33
-1.13324e-32
-7.3461e-33
-4.9879e-33
-3.47087e-33
-2.10391e-33
-1.38309e-33
-6.86564e-34
-3.9737e-34
-2.07977e-34
-9.41444e-35
-4.81822e-35
-9.18038e-37
7.30365e-36
5.23525e-36
5.16821e-36
3.54923e-36
2.58456e-36
1.3523e-36
7.55077e-37
4.9449e-37
2.69383e-37
1.45682e-37
7.31734e-38
3.89538e-38
1.92431e-38
9.06972e-39
4.22993e-39
8.84579e-40
-1.49888e-38
6.77453e-81
0
3.73915e-25
-7.03053e-27
-9.02217e-29
1.38672e-30
-1.8516e-32
5.29133e-35
9.88984e-37
-6.91644e-39
1.37374e-42
4.20017e-43
-3.44638e-45
1.54383e-47
-1.48838e-50
-1.33166e-52
-2.35401e-54
9.09144e-57
2.00266e-58
-8.63451e-61
-3.7619e-63
-7.57375e-66
4.08207e-68
1.14923e-69
4.26732e-72
4.52966e-75
9.82666e-79
0.00861802
0.0189106
0.0334925
0.0497683
0.0651421
0.076264
0.0823832
0.0811173
0.0761271
0.0571513
0.0349724
0.0077245
-0.0247619
-0.0548541
-0.0832904
-0.10618
-0.121571
-0.127554
-0.128818
-0.121742
-0.108906
-0.0955085
-0.0798178
-0.0643172
-0.0516275
-0.0388782
-0.0290625
-0.0214106
-0.0151673
-0.0108112
-0.00751428
-0.005061
-0.00345777
-0.00224982
-0.00148724
-0.000952972
-0.000597068
-0.000380999
-0.0002314
-0.000140447
-8.5363e-05
-5.07393e-05
-3.00795e-05
-1.79554e-05
-1.02924e-05
-6.0738e-06
-3.43954e-06
-1.93115e-06
-1.11079e-06
-6.14659e-07
-3.47325e-07
-1.91142e-07
-1.0344e-07
-5.73621e-08
-3.04185e-08
-1.61997e-08
-8.68995e-09
-4.57893e-09
-2.41261e-09
-1.28743e-09
-6.57712e-10
-3.47903e-10
-1.77313e-10
-9.23895e-11
-4.71317e-11
-2.36279e-11
-1.20699e-11
-6.03571e-12
-2.99781e-12
-1.51777e-12
-7.4058e-13
-3.62907e-13
-1.78239e-13
-8.60035e-14
-4.23885e-14
-2.04569e-14
-1.00327e-14
-5.15711e-15
4.02738e-06
1.06913e-06
-4.76659e-06
1.6401e-05
3.74792e-05
-9.03248e-05
-0.000471758
-0.00087545
1.96146e-06
1.61285e-06
1.05378e-06
1.16719e-06
1.21106e-06
1.25085e-06
1.22913e-06
9.84406e-07
3.09922e-06
-1.09507e-06
-1.92922e-06
3.2373e-27
1.08053e-25
-3.20316e-23
1.30308e-21
-9.09494e-21
0
0
0
0
0
0
0
0
0
-1.23577e-35
2.63726e-32
-9.47838e-31
2.21679e-29
6.28317e-29
2.80573e-27
-4.61211e-28
-4.1995e-27
-1.69061e-26
2.19546e-27
-8.34512e-27
7.95729e-27
3.94257e-27
1.36192e-26
-5.53519e-27
-3.51894e-27
-7.63374e-27
-1.45547e-26
-3.98322e-27
-3.44782e-27
-2.25346e-27
-2.38829e-27
-7.36405e-28
3.23251e-28
3.00889e-28
6.93063e-28
1.52828e-28
1.08754e-28
1.2405e-28
-2.07179e-29
-6.25959e-29
-9.17819e-29
-1.8982e-28
-1.1818e-28
-7.65026e-29
-3.25964e-30
5.33066e-29
1.34004e-28
1.36941e-28
1.00392e-28
5.20155e-29
5.95219e-30
2.36602e-29
-1.03008e-29
4.58123e-30
-4.43753e-30
-1.8852e-30
1.15795e-30
1.06804e-30
2.12647e-31
4.89419e-32
-4.19007e-32
-2.40969e-32
-8.80248e-32
3.60877e-32
-4.68047e-32
-3.21741e-32
-2.41273e-34
-2.2018e-32
-9.07912e-33
-7.0311e-33
-9.80092e-34
-9.87595e-34
-8.26886e-34
-1.41663e-34
-2.52261e-34
5.94507e-36
-3.03446e-35
-2.8497e-35
4.80137e-36
-1.69685e-35
1.96171e-35
1.54963e-35
5.0555e-36
5.83587e-36
2.99759e-36
2.3675e-36
1.12546e-36
4.34303e-37
3.81142e-37
1.77016e-37
7.9595e-38
3.97618e-38
2.07844e-38
1.1191e-38
5.24326e-39
2.82885e-39
6.85599e-40
2.09949e-38
4.9209e-30
5.70377e-32
-1.5282e-33
1.47048e-35
-6.33746e-38
-4.69133e-40
6.50566e-42
-2.9355e-44
4.44921e-47
4.55604e-49
-2.11527e-51
-1.6141e-53
-1.40116e-55
2.44965e-57
2.40327e-60
-8.10472e-62
-1.36756e-64
-3.15073e-67
1.00024e-68
8.27052e-71
1.67848e-73
7.90007e-77
0.00497113
0.0135288
0.0256632
0.0419417
0.058236
0.0707643
0.0811614
0.0838558
0.0793245
0.0670985
0.0485889
0.0230084
-0.0069809
-0.0393476
-0.068905
-0.0950591
-0.114312
-0.125505
-0.129081
-0.126909
-0.116759
-0.102172
-0.0884184
-0.0726063
-0.0578909
-0.044675
-0.0341366
-0.0251564
-0.0182141
-0.0127789
-0.00908229
-0.00625835
-0.00419021
-0.00277311
-0.00183003
-0.00120354
-0.000766054
-0.000477649
-0.000299902
-0.000182851
-0.000110386
-6.67307e-05
-3.87544e-05
-2.32827e-05
-1.36726e-05
-7.91176e-06
-4.58407e-06
-2.61686e-06
-1.46656e-06
-8.20384e-07
-4.61891e-07
-2.60331e-07
-1.42814e-07
-7.71157e-08
-4.21983e-08
-2.25078e-08
-1.1956e-08
-6.3971e-09
-3.30481e-09
-1.76656e-09
-9.25682e-10
-4.78834e-10
-2.46852e-10
-1.279e-10
-6.65906e-11
-3.3952e-11
-1.68916e-11
-8.63558e-12
-4.31165e-12
-2.13643e-12
-1.05261e-12
-5.25733e-13
-2.56575e-13
-1.25582e-13
-6.04687e-14
-2.97795e-14
-1.4391e-14
-7.09406e-15
-1.38403e-06
4.10278e-06
-6.13196e-06
3.42732e-07
2.86557e-05
-4.52015e-06
-0.000255631
-0.000689708
-0.000900196
1.06772e-06
1.16444e-06
1.1449e-06
1.2277e-06
1.25474e-06
1.40365e-06
6.46079e-07
1.19661e-06
1.21701e-33
3.05416e-31
2.82061e-28
-1.63593e-25
5.77401e-24
-1.32724e-22
3.60732e-20
-1.21219e-17
0
0
0
0
0
0
0
0
0
6.962e-34
-5.08925e-31
-4.02461e-30
5.00374e-29
1.97491e-28
2.38074e-27
-3.35156e-27
-1.11831e-26
-9.66572e-27
-9.72121e-28
8.72956e-27
-1.43402e-27
1.64529e-26
-1.95807e-27
5.52646e-27
-4.88807e-27
-1.88217e-26
-3.759e-27
-2.80675e-27
-4.80384e-27
-2.36323e-27
-1.16478e-27
2.4429e-28
5.42208e-28
6.00046e-28
2.20998e-28
1.55899e-28
9.45407e-29
3.20798e-29
-3.58926e-29
-4.33436e-30
-1.04886e-28
-1.80526e-28
-1.09117e-28
-5.95589e-29
1.87757e-29
6.32084e-29
1.26142e-28
1.01837e-28
6.09447e-29
2.09804e-29
2.52514e-29
-1.30042e-29
1.99511e-30
1.2981e-30
-4.54759e-30
1.39314e-30
1.33851e-30
8.73758e-32
2.0716e-31
3.53919e-32
-5.01209e-34
-2.02605e-32
3.10175e-32
-6.22022e-32
-3.89031e-32
-6.91926e-33
-3.02648e-32
-1.48143e-32
-8.35068e-33
-3.68719e-33
-1.58761e-33
-1.48454e-33
-4.62429e-34
-1.81436e-34
-1.90452e-34
-4.67723e-35
-6.67456e-35
-2.98059e-35
-1.44013e-35
2.80738e-35
1.06165e-35
6.03349e-36
8.11438e-36
3.64157e-36
3.30459e-36
1.73136e-36
6.27694e-37
5.26549e-37
2.59511e-37
1.05495e-37
5.74902e-38
2.44692e-38
1.57474e-38
7.98471e-39
3.54812e-39
3.67722e-40
1.39744e-39
7.54256e-21
1.55945e-25
-4.42741e-24
3.78544e-22
-8.53117e-23
-1.70895e-07
0.00214647
-1.60854e-06
1.87039e-06
6.13302e-35
4.90403e-29
0
0
0
0
0
0
0
0
0
0
0
0
0
0
0
0
0
0
0
0
0
0
0
0
0
0
0
0
0
0
0
0
0
0
0
0
0
0
0
0
0
0
0
0
0
0
0
0
0
0
0
0
0
0
0
0
0
0
0
0
0
0
0
0
0
0
0
0
0
0
0
0
0
0
0
0
0
0
0
0
0
0
0
0
0
0
0
0
0
0
0
0
0
0
0
0
0
0
0
0
0
0
0
0
0
0
0
0
0
0
0
0
0
0
0
0
0
0
0
0
0
0
0
0
0
0
0
0
0
0
0
0
0
0
0
0
0
0
0
0
0
0
0
0
0
0
0
0
0
0
0
0
0
0
0
0
0
0
0
0
0
0
0
0
0
0
0
0
0
0
0
0
0
0
0
0
0
0
0
0
0
0
0
0
0
0
0
0
0
0
0
0
0
0
0
0
0
-5.44816e-07
0
0
0
0
0
0
0
0
0
0
0
0
0
0
0
0
0
0
0
0
0
0
0
0
0
0
0
0
0
0
0
0
0
0
0
0
0
0
0
0
0
0
0
0
0
0
0
0
0
0
0
0
0
0
0
0
0
0
0
0
0
0
0
0
0
0
0
0
0
0
0
0
0
0
0
0
0
0
0
0
0
0
0
0
0
0
0
0
0
0
0
0
0
0
0
0
0
0
1.79928e-142
2.28309e-142
5.90428e-142
7.33556e-142
1.08013e-140
4.74381e-142
-2.94313e-137
-4.0204e-137
-1.59542e-135
-2.01034e-135
-1.25015e-134
-1.42394e-134
-1.12065e-132
-1.37732e-132
-7.13949e-133
-8.72924e-133
-6.59924e-133
3.09774e-133
5.29261e-132
6.49506e-132
4.25718e-131
-1.85073e-130
4.39152e-131
-3.34234e-131
-4.751e-129
5.34712e-130
-8.39674e-127
-2.50502e-127
-2.04511e-124
-1.10995e-124
-1.69881e-124
-1.1458e-124
-1.54827e-122
-1.84266e-122
-1.30812e-122
-1.5469e-122
-1.00628e-122
-9.79898e-123
-4.27229e-121
-4.45741e-121
-7.09927e-121
-7.63022e-121
-2.0079e-120
4.35046e-120
-1.0212e-119
-8.14692e-120
-1.70073e-119
-1.85971e-119
-2.10196e-119
-2.28293e-119
-1.36667e-119
-1.49093e-119
-2.16582e-119
-1.95223e-119
-1.458e-119
-1.31822e-119
-9.96685e-120
-7.95201e-120
-2.08129e-119
-2.28085e-119
4.95477e-119
1.32257e-119
2.39431e-118
-2.73653e-118
1.3737e-116
1.01164e-116
2.59334e-116
2.15273e-116
2.04655e-116
5.31498e-117
7.13796e-116
-5.7859e-116
2.16567e-115
1.55775e-115
1.90782e-115
6.9509e-116
3.77311e-114
3.01328e-114
2.88815e-114
1.82057e-114
1.96509e-114
1.28368e-114
5.58824e-114
-1.55906e-113
4.82087e-113
2.18924e-113
1.08082e-112
4.89965e-113
2.22028e-112
1.59023e-112
1.03374e-111
4.71878e-112
7.44957e-112
2.65481e-112
5.98264e-112
1.64944e-112
3.01597e-111
2.55993e-111
2.17709e-111
1.69591e-111
1.57881e-111
1.14133e-111
5.69972e-111
3.92183e-111
7.0421e-111
5.07569e-111
8.76861e-111
-7.86739e-111
8.46657e-111
-5.846e-111
2.73442e-110
2.13061e-110
1.02995e-109
-2.52378e-109
1.96048e-108
1.61991e-108
1.40603e-108
7.37026e-109
1.03957e-108
4.17677e-109
8.20811e-109
2.39472e-109
4.56168e-108
3.83435e-108
3.72193e-108
2.88165e-108
2.74872e-108
1.8057e-108
1.04049e-107
6.51115e-108
1.60488e-107
1.24662e-107
1.21021e-107
5.61323e-108
2.23907e-107
-5.74104e-108
7.40178e-107
5.56409e-107
5.79291e-107
2.84492e-107
1.39893e-106
1.45101e-106
9.40526e-107
8.08154e-107
6.38542e-107
5.04731e-107
4.68255e-107
1.89181e-107
5.44722e-107
3.57014e-107
1.2054e-106
9.67158e-107
9.28331e-107
5.14273e-107
5.00049e-106
3.56422e-106
6.043e-106
4.95051e-106
4.24556e-106
3.24241e-106
4.20881e-106
1.11375e-106
7.01775e-106
5.81773e-106
5.85377e-106
1.1416e-106
1.11032e-105
1.01538e-105
7.58988e-106
6.50805e-106
5.1355e-106
4.19154e-106
4.38612e-106
2.89027e-106
3.14454e-106
1.61093e-106
3.35795e-106
-1.64177e-106
3.65178e-105
2.7934e-105
2.91726e-105
4.31889e-106
4.76266e-105
2.89613e-105
3.62917e-105
1.46839e-105
1.35537e-104
1.04092e-104
1.02316e-104
7.71355e-105
7.2469e-105
5.45861e-105
1.08851e-104
8.06262e-105
1.1158e-104
9.09185e-105
1.90276e-104
-2.79135e-104
5.3806e-104
2.84751e-104
8.19442e-104
7.38937e-104
5.69271e-104
4.74087e-104
6.35899e-104
5.7845e-104
4.64644e-104
3.06459e-104
6.17636e-104
5.44475e-104
4.27814e-104
3.24071e-104
1.18732e-103
1.00114e-103
9.12333e-104
7.28241e-104
6.46819e-104
4.92201e-104
1.18022e-103
8.58652e-104
1.34075e-103
1.12719e-103
9.32705e-104
7.36954e-104
9.08425e-104
2.45976e-104
1.12577e-103
8.40464e-104
1.01459e-103
4.35116e-104
7.2156e-104
3.45304e-104
5.77001e-104
1.43822e-104
9.31237e-104
7.4606e-104
6.33268e-104
4.62567e-104
6.23537e-104
4.98059e-104
7.16199e-104
6.83667e-104
4.88596e-104
4.46081e-104
7.59915e-104
6.53279e-104
7.10209e-104
6.3821e-104
4.81398e-104
4.26651e-104
3.61364e-104
2.02852e-104
3.8137e-104
3.17324e-104
2.65263e-104
1.88356e-104
4.01399e-104
2.62908e-104
3.63167e-104
2.73464e-104
2.52673e-104
2.00247e-104
1.94624e-104
1.64778e-104
1.46723e-104
1.20782e-104
1.53518e-104
-6.28521e-105
6.17472e-104
4.93863e-104
4.527e-104
2.88918e-104
3.17287e-104
2.01777e-104
1.00937e-101
-4.14696e-105
1.16979e-98
1.37424e-98
-2.57663e-97
-3.1497e-98
7.96787e-95
-1.2051e-94
8.64831e-93
-1.40515e-92
8.5943e-92
-2.89001e-91
-2.09743e-90
-4.8389e-90
3.97607e-87
-1.14333e-87
1.65301e-84
8.36906e-85
1.39486e-82
1.69992e-82
1.63238e-82
6.13312e-81
1.05424e-82
1.78283e-25
-4.08901e-20
9.42367e-18
-7.27634e-17
-1.96157e-16
1.63811e-17
-9.34457e-23
4.18207e-22
-1.76152e-22
-1.07149e-28
3.35289e-08
1.59087e-30
-2.1332e-32
5.55364e-35
1.12949e-36
-7.7554e-39
1.34044e-42
4.72402e-43
-3.82984e-45
1.71923e-47
-1.5959e-50
-1.52823e-52
-2.75421e-54
1.07804e-56
2.30064e-58
-1.00445e-60
-4.29904e-63
-9.12057e-66
4.77662e-68
1.34421e-69
4.78334e-72
4.92952e-75
9.78174e-79
1.78431e-80
0.00418612
-5.8519e-07
0.00762927
0.0104453
0.0125678
0.0119089
0.00792364
0.00377814
-0.00249157
-0.0100822
-0.0180404
-0.0249634
-0.0327883
-0.0381899
-0.0405202
-0.0415288
-0.0380323
-0.0334237
-0.0278382
-0.0209458
-0.0171201
-0.0116094
-0.00627298
-0.00437402
-0.00218646
-0.000940326
0.000249868
0.000387816
0.000493358
0.000697031
0.000815933
0.000525625
0.000381324
0.000258773
0.000195763
0.00014167
7.94349e-05
5.20905e-05
3.14543e-05
2.03148e-05
1.25446e-05
7.34292e-06
4.26075e-06
3.30761e-06
1.73389e-06
1.10384e-06
6.28141e-07
3.40116e-07
1.92206e-07
9.76719e-08
5.82353e-08
3.40203e-08
1.51415e-08
8.0081e-09
3.71813e-09
2.04946e-09
1.03928e-09
4.58144e-10
2.11869e-10
1.62048e-10
6.26799e-11
3.77611e-11
1.86964e-11
9.04008e-12
5.35526e-12
1.91476e-12
5.88455e-13
4.4641e-13
1.60125e-13
5.24247e-14
1.28084e-15
7.31994e-15
-8.37945e-16
-3.00828e-15
-3.5315e-16
5.43505e-16
3.42728e-17
-2.40183e-16
-4.37028e-16
-8.15866e-07
-2.83342e-15
3.20223e-27
-3.58313e-07
4.63548e-06
-4.98128e-06
8.25383e-07
3.01769e-05
-6.07249e-05
-0.000306064
-0.000331101
6.30846e-07
-8.44231e-07
-9.71783e-07
0.00046804
-8.98187e-07
-8.08431e-07
-6.74366e-07
6.15644e-35
-7.96658e-07
-7.65176e-07
-7.44772e-07
-7.23099e-07
-7.48975e-07
-1.83183e-06
9.62996e-07
-4.97168e-07
2.95377e-07
-1.55182e-07
-6.69686e-28
-2.5274e-28
0.00257727
0.000508057
4.34425e-25
3.99264e-25
-8.90634e-06
-3.54893e-06
-5.23014e-06
2.90162e-06
1.58971e-06
6.33058e-06
7.22716e-06
3.8423e-06
9.49269e-06
-5.79762e-06
4.82868e-06
-9.49368e-06
-6.14285e-07
-4.10459e-06
1.48131e-06
1.44688e-05
1.74837e-05
2.70588e-05
4.17188e-05
1.54609e-05
5.46519e-05
-3.46842e-05
5.21098e-05
-0.00013028
6.05011e-06
-0.000251642
-7.72999e-05
-0.000347648
-0.000187238
-0.000366018
-0.000285912
-0.000230381
-0.000303348
0.000230456
-0.000306043
0.00111854
-0.000233852
0.00211551
0.000165062
0.0035033
0.00048586
0.00508408
0.00103063
0.00669614
0.00140649
0.00828254
0.00174377
0.00980215
0.00186882
0.0107208
0.00186691
0.0113768
0.00134598
0.0115048
0.000427328
0.010512
-0.000296146
0.00891796
-0.00222381
0.00739959
-0.00476302
0.00569352
-0.00633749
0.00393492
-0.00848739
0.00174162
-0.0101274
-0.00158107
-0.0116411
-0.0039255
-0.0143368
-0.00778418
-0.0152587
-0.011417
-0.0172926
-0.0144374
-0.0189086
-0.0178674
-0.0194212
-0.0210393
-0.0208654
-0.0234871
-0.0213023
-0.0264307
-0.0215047
-0.0295381
-0.021619
-0.0315472
-0.0214503
-0.0334469
-0.0205557
-0.0349771
-0.0200077
-0.0352655
-0.0188684
-0.034897
-0.0158169
-0.0340673
-0.0151326
-0.0319583
-0.0118005
-0.0305691
-0.00798806
-0.0289453
-0.00659277
-0.0257092
-0.00460433
-0.0234191
-0.000339932
-0.0204404
0.000511148
-0.0173937
0.00323283
-0.0137983
0.00530286
-0.0115773
0.00778751
-0.0090322
0.00864551
-0.00605096
0.0096907
-0.00527745
0.0116243
-0.00289529
0.0100435
-0.000988695
0.01102
-0.000759463
0.0117443
-6.3449e-05
0.0102909
0.00115465
0.00969171
0.000953284
0.00996345
0.00184312
0.00832097
0.00235729
0.00811884
0.00223838
0.00778706
0.00253454
0.00661336
0.00212213
0.00651079
0.00153443
0.00536735
0.0015115
0.00426019
0.00149641
0.00385782
0.00147998
0.00340449
0.00122541
0.00311001
0.00108635
0.00252305
0.00103963
0.00214654
0.000791689
0.00192101
0.000759396
0.00149609
0.000684441
0.00130368
0.000558354
0.00112756
0.000502142
0.000890355
0.000386289
0.000793275
0.000276372
0.000609672
0.000237435
0.000457002
0.000204365
0.000384849
0.000176919
0.000317177
0.000139804
0.000266
0.000116308
0.000208732
0.000101606
0.000172733
7.35234e-05
0.000144203
6.37246e-05
0.000106685
5.26026e-05
8.75578e-05
3.81624e-05
7.19608e-05
3.01676e-05
5.29677e-05
2.5337e-05
4.16748e-05
1.85973e-05
3.40362e-05
1.51399e-05
2.52332e-05
1.22965e-05
2.03071e-05
1.00142e-05
1.60546e-05
7.55123e-06
1.28751e-05
5.98478e-06
9.69353e-06
4.92365e-06
7.71876e-06
3.46976e-06
6.17738e-06
2.84709e-06
4.40554e-06
2.23874e-06
3.46642e-06
1.57568e-06
2.73733e-06
1.20616e-06
1.95206e-06
9.65734e-07
1.49043e-06
6.69344e-07
1.17343e-06
5.42534e-07
8.3284e-07
4.22684e-07
6.47154e-07
3.08408e-07
5.01876e-07
2.42279e-07
3.61201e-07
1.68446e-07
2.8813e-07
1.1238e-07
2.00914e-07
8.70715e-08
1.3817e-07
6.73696e-08
1.06318e-07
5.24406e-08
8.05876e-08
3.66755e-08
6.2741e-08
2.75596e-08
4.38567e-08
2.14077e-08
3.26996e-08
1.43714e-08
2.51175e-08
1.1364e-08
1.73151e-08
8.60859e-09
1.31341e-08
5.35373e-09
9.99924e-09
4.0424e-09
6.42309e-09
3.17596e-09
4.88296e-09
2.15638e-09
3.71582e-09
1.64066e-09
2.56207e-09
1.24084e-09
1.9311e-09
9.43163e-10
1.43423e-09
6.64273e-10
1.0791e-09
4.95229e-10
7.60244e-10
3.81512e-10
5.71835e-10
2.48141e-10
4.29202e-10