/*--------------------------------*- C++ -*----------------------------------*\
  =========                 |
  \\      /  F ield         | OpenFOAM: The Open Source CFD Toolbox
   \\    /   O peration     | Website:  https://openfoam.org
    \\  /    A nd           | Version:  7
     \\/     M anipulation  |
\*---------------------------------------------------------------------------*/
FoamFile
{
    version     2.0;
    format      ascii;
    class       volScalarField;
    location    "0.75";
    object      T;
}
// * * * * * * * * * * * * * * * * * * * * * * * * * * * * * * * * * * * * * //

dimensions      [0 0 0 1 0 0 0];

internalField   nonuniform List<scalar> 
10000
(
0.5
0.0669146
-0.0353169
-0.0277115
-0.00789976
0.00112931
0.00220711
0.000963794
3.88563e-05
-0.000206219
-0.000130475
-2.60559e-05
1.76156e-05
1.74837e-05
6.08561e-06
-9.06071e-07
-2.20759e-06
-1.13469e-06
-1.06163e-07
2.47859e-07
1.87024e-07
4.9395e-08
-2.13888e-08
-2.77866e-08
-1.17496e-08
4.15034e-10
3.66278e-09
2.25287e-09
3.96249e-10
-4.00522e-10
-3.77204e-10
-1.28468e-10
2.72484e-11
5.58373e-11
2.85373e-11
2.14216e-12
-7.09392e-12
-5.31018e-12
-1.3778e-12
6.83412e-13
8.6804e-13
3.73919e-13
-6.49925e-15
-1.09474e-13
-6.52927e-14
-9.0884e-15
1.01406e-14
2.23703e-15
-1.03485e-14
-1.54382e-14
-1.23424e-14
-5.38157e-15
1.2742e-15
5.45182e-15
6.78236e-15
5.92901e-15
3.91895e-15
1.71033e-15
-4.13792e-17
-1.05419e-15
-1.36224e-15
-1.1846e-15
-7.85503e-16
-3.75574e-16
-7.16369e-17
9.56115e-17
1.49834e-16
1.35128e-16
9.23976e-17
4.87598e-17
1.68081e-17
-1.215e-18
-8.32625e-18
-8.93114e-18
-6.72377e-18
-4.01407e-18
-1.86854e-18
-5.43385e-19
9.82606e-20
3.04648e-19
2.93433e-19
2.07059e-19
1.18611e-19
5.46742e-20
1.74792e-20
4.91065e-23
-5.73136e-21
-5.98135e-21
-4.34621e-21
-2.57355e-21
-1.27108e-21
-4.9626e-22
-1.12628e-22
3.76153e-23
7.22128e-23
6.14982e-23
4.02896e-23
2.21877e-23
1.04924e-23
2.74715e-24
0.933085
0.5
0.14482
-0.0139075
-0.0411718
-0.0230289
-0.00507433
0.00215701
0.00250723
0.00101071
-9.38734e-08
-0.000255324
-0.000158213
-3.18213e-05
2.20241e-05
2.24005e-05
8.17946e-06
-9.48178e-07
-2.86443e-06
-1.56602e-06
-2.00131e-07
3.13491e-07
2.58847e-07
7.77035e-08
-2.39625e-08
-3.79444e-08
-1.77304e-08
-5.20299e-10
4.83208e-09
3.30976e-09
7.47241e-10
-4.85e-10
-5.38963e-10
-2.10526e-10
2.14968e-11
7.68033e-11
4.4228e-11
6.23512e-12
-9.13281e-12
-7.92443e-12
-2.51981e-12
6.96523e-13
1.20916e-12
5.94285e-13
4.89477e-14
-1.1321e-13
-5.05061e-14
3.50111e-14
5.90098e-14
3.1664e-14
-9.02517e-15
-3.68339e-14
-4.46205e-14
-3.69807e-14
-2.20119e-14
-6.69515e-15
4.6847e-15
1.05688e-14
1.14854e-14
9.13531e-15
5.47561e-15
2.04726e-15
-3.22133e-16
-1.47221e-15
-1.66747e-15
-1.32305e-15
-8.06873e-16
-3.50954e-16
-4.96866e-17
9.72796e-17
1.34604e-16
1.13814e-16
7.41105e-17
3.7653e-17
1.27551e-17
-5.1249e-19
-5.47167e-18
-5.82457e-18
-4.3309e-18
-2.57232e-18
-1.21651e-18
-3.92605e-19
6.61606e-21
1.42513e-19
1.48278e-19
1.07943e-19
6.36902e-20
3.0915e-20
1.14025e-20
1.86205e-21
-1.69996e-21
-2.32405e-21
-1.84228e-21
-1.15751e-21
-6.11117e-22
-2.67557e-22
-8.64841e-23
-7.42381e-24
1.75806e-23
2.12367e-23
1.03532
0.85518
0.5
0.182448
0.00830364
-0.0419281
-0.032441
-0.0120093
3.84408e-05
0.00307766
0.00201936
0.000522644
-0.000189734
-0.000261936
-0.000118925
-6.07707e-06
2.86043e-05
2.02421e-05
5.19525e-06
-2.29056e-06
-2.95623e-06
-1.27806e-06
8.46554e-09
3.71768e-07
2.40892e-07
5.03709e-08
-3.68802e-08
-3.89006e-08
-1.47958e-08
1.67178e-09
5.45504e-09
3.1046e-09
4.35547e-10
-6.33135e-10
-5.4823e-10
-1.74177e-10
4.83678e-11
8.42081e-11
4.13834e-11
2.19391e-12
-1.09993e-11
-8.00987e-12
-2.07997e-12
9.4137e-13
1.16282e-12
4.26565e-13
-8.02888e-14
-1.40572e-13
1.29322e-14
1.47709e-13
1.78353e-13
1.26796e-13
4.63606e-14
-2.23633e-14
-6.16717e-14
-7.10839e-14
-5.90829e-14
-3.68116e-14
-1.40402e-14
2.98357e-15
1.20139e-14
1.39652e-14
1.14007e-14
7.07463e-15
3.00729e-15
1.95985e-16
-1.21074e-15
-1.54644e-15
-1.28374e-15
-8.1936e-16
-3.94337e-16
-1.05536e-16
4.39378e-17
9.30207e-17
8.70684e-17
6.06384e-17
3.35863e-17
1.39518e-17
2.71517e-18
-2.17858e-18
-3.33822e-18
-2.81041e-18
-1.82975e-18
-9.70481e-19
-4.00305e-19
-9.34947e-20
3.55861e-20
6.79001e-20
5.88811e-20
3.8988e-20
2.13761e-20
9.6297e-21
3.16907e-21
2.52397e-22
-7.12129e-22
-7.95232e-22
-5.86595e-22
-3.51806e-22
-1.8081e-22
-5.80141e-23
1.02771
1.01391
0.817552
0.5
0.206389
0.0268058
-0.0388677
-0.0384381
-0.0184166
-0.00302402
0.00284105
0.00282245
0.00118552
4.2633e-05
-0.000296282
-0.000211922
-6.02234e-05
1.88442e-05
2.95095e-05
1.43558e-05
1.17969e-06
-3.31264e-06
-2.541e-06
-7.3481e-07
2.46588e-07
3.7721e-07
1.7883e-07
8.57306e-09
-4.67553e-08
-3.3615e-08
-8.56666e-09
4.24374e-09
5.36577e-09
2.31172e-09
-5.87147e-11
-7.29435e-10
-4.68793e-10
-9.40103e-11
7.8105e-11
8.05101e-11
3.03587e-11
-3.87428e-12
-1.16604e-11
-6.61112e-12
-9.99088e-13
1.11598e-12
7.74219e-13
-7.49438e-14
-4.49975e-13
-3.19194e-13
-2.00316e-15
2.44915e-13
3.33623e-13
2.90581e-13
1.80494e-13
6.14945e-14
-3.00239e-14
-7.96971e-14
-9.00296e-14
-7.34054e-14
-4.5031e-14
-1.74647e-14
2.11996e-15
1.19341e-14
1.38285e-14
1.11014e-14
6.8116e-15
2.95443e-15
3.79952e-16
-8.80576e-16
-1.1946e-15
-1.00314e-15
-6.47637e-16
-3.23057e-16
-1.02825e-16
1.29025e-17
5.4333e-17
5.50193e-17
3.98867e-17
2.3098e-17
1.04839e-17
2.99986e-18
-4.95218e-19
-1.57297e-18
-1.4957e-18
-1.04236e-18
-5.91953e-19
-2.72877e-19
-8.99352e-20
-4.81485e-21
2.37983e-20
2.59441e-20
1.9069e-20
1.13785e-20
5.6934e-21
2.29814e-21
6.01507e-22
-8.19503e-23
-2.57051e-22
-2.38919e-22
1.0079
1.04117
0.991696
0.793611
0.5
0.223365
0.042154
-0.0343031
-0.0421139
-0.0239644
-0.00647534
0.00197761
0.00332499
0.00186777
0.000400612
-0.000245072
-0.000285991
-0.000129611
-8.12739e-06
3.15022e-05
2.39228e-05
7.25577e-06
-1.97863e-06
-3.44893e-06
-1.76137e-06
-1.8454e-07
3.9124e-07
3.18273e-07
9.93709e-08
-2.70434e-08
-4.76358e-08
-2.40385e-08
-2.00425e-09
5.81838e-09
4.51193e-09
1.29238e-09
-4.84196e-10
-7.13907e-10
-3.34369e-10
-9.69401e-12
9.44432e-11
6.66222e-11
1.65909e-11
-8.52041e-12
-1.02545e-11
-3.9705e-12
4.9267e-13
1.27083e-12
2.0781e-13
-8.18399e-13
-1.09928e-12
-7.81146e-13
-2.56821e-13
1.82585e-13
4.20068e-13
4.61263e-13
3.68709e-13
2.17251e-13
6.9223e-14
-3.7236e-14
-8.99207e-14
-9.66024e-14
-7.51183e-14
-4.39186e-14
-1.61305e-14
2.15323e-15
1.05265e-14
1.16834e-14
9.06201e-15
5.41436e-15
2.32503e-15
3.52991e-16
-5.784e-16
-8.05041e-16
-6.74555e-16
-4.35443e-16
-2.207e-16
-7.65224e-17
-5.87706e-19
2.78225e-17
3.03895e-17
2.27314e-17
1.35703e-17
6.50476e-18
2.20921e-18
1.12634e-19
-6.25842e-19
-6.918e-19
-5.14282e-19
-3.0813e-19
-1.5271e-19
-5.90067e-20
-1.23779e-20
5.74318e-21
9.64784e-21
8.01253e-21
5.16535e-21
2.79059e-21
1.28046e-21
2.92932e-22
0.998871
1.02303
1.04193
0.973194
0.776635
0.5
0.236308
0.0551561
-0.0291433
-0.0442026
-0.0286476
-0.0100134
0.000663016
0.00351519
0.00249279
0.000838178
-0.000110139
-0.000325109
-0.00020245
-4.98925e-05
2.37007e-05
3.12705e-05
1.49634e-05
1.26022e-06
-3.52123e-06
-2.80623e-06
-8.96015e-07
2.13495e-07
4.11962e-07
2.18731e-07
2.6977e-08
-4.67862e-08
-3.99564e-08
-1.32133e-08
2.98679e-09
5.9982e-09
3.17659e-09
3.49679e-10
-7.21311e-10
-5.95253e-10
-1.85875e-10
5.37544e-11
9.23805e-11
4.62835e-11
3.89253e-12
-1.02956e-11
-6.78005e-12
-2.50866e-13
2.58923e-12
1.86523e-12
-6.86638e-14
-1.49091e-12
-1.90148e-12
-1.54297e-12
-8.51144e-13
-1.7186e-13
3.06575e-13
5.29926e-13
5.34018e-13
4.00837e-13
2.19724e-13
5.92663e-14
-4.53024e-14
-8.9712e-14
-8.91472e-14
-6.50785e-14
-3.5742e-14
-1.20171e-14
2.33701e-15
8.25093e-15
8.63284e-15
6.43352e-15
3.72751e-15
1.5702e-15
2.53456e-16
-3.45083e-16
-4.84669e-16
-4.03282e-16
-2.59344e-16
-1.32624e-16
-4.85877e-17
-4.37956e-18
1.26606e-17
1.50669e-17
1.16102e-17
7.10776e-18
3.54736e-18
1.33802e-18
2.22834e-19
-2.05641e-19
-2.84463e-19
-2.27105e-19
-1.42935e-19
-7.49489e-20
-3.20038e-20
-9.46681e-21
1.54094e-22
3.00448e-21
2.96517e-21
1.97637e-21
0.997793
1.00507
1.03244
1.03887
0.957846
0.763692
0.5
0.246668
0.0663827
-0.0238073
-0.0451887
-0.0325522
-0.0134733
-0.000959178
0.00341734
0.00301639
0.00131432
9.733e-05
-0.000320961
-0.000268331
-0.000102053
5.40097e-06
3.42592e-05
2.29965e-05
6.2179e-06
-2.43292e-06
-3.56994e-06
-1.78399e-06
-1.83405e-07
4.05355e-07
3.37003e-07
1.12392e-07
-2.33436e-08
-4.9923e-08
-2.74106e-08
-3.82711e-09
5.64323e-09
5.03309e-09
1.74509e-09
-3.29135e-10
-7.55025e-10
-4.17439e-10
-5.74631e-11
8.56195e-11
7.39343e-11
2.32232e-11
-6.44368e-12
-9.81513e-12
-2.16338e-12
4.19532e-12
5.5678e-12
3.50324e-12
5.85341e-13
-1.57162e-12
-2.50182e-12
-2.40704e-12
-1.71511e-12
-8.40364e-13
-8.3655e-14
3.98349e-13
5.82403e-13
5.37872e-13
3.72359e-13
1.84263e-13
3.61528e-14
-4.93319e-14
-7.85993e-14
-7.15315e-14
-4.87899e-14
-2.5044e-14
-7.54048e-15
2.20365e-15
5.7763e-15
5.68118e-15
4.06799e-15
2.28635e-15
9.43213e-16
1.56826e-16
-1.87977e-16
-2.6488e-16
-2.18693e-16
-1.40031e-16
-7.2075e-17
-2.75189e-17
-4.11037e-18
5.13386e-18
6.80928e-18
5.41693e-18
3.3951e-18
1.75176e-18
7.11771e-19
1.71647e-19
-4.97065e-20
-1.04754e-19
-9.12721e-20
-6.03979e-20
-3.32601e-20
-1.52654e-20
-5.50018e-21
7.48031e-24
0.999036
0.997843
1.01201
1.03844
1.0343
0.944844
0.753332
0.5
0.255249
0.0762288
-0.0184971
-0.0453946
-0.0357829
-0.0167686
-0.00277966
0.00306919
0.00341666
0.00179625
0.000362307
-0.000271062
-0.000319196
-0.000159502
-2.26983e-05
3.14482e-05
3.00039e-05
1.24139e-05
-5.01571e-08
-3.78026e-06
-2.69448e-06
-7.81473e-07
2.58291e-07
4.1876e-07
2.17163e-07
2.59541e-08
-4.75584e-08
-4.11124e-08
-1.42499e-08
2.56381e-09
6.11251e-09
3.46095e-09
5.37596e-10
-6.80935e-10
-6.33202e-10
-2.29878e-10
3.16835e-11
8.68964e-11
4.44755e-11
-3.30227e-13
-1.5582e-11
-9.43785e-12
1.69807e-12
8.43116e-12
9.27073e-12
6.47015e-12
2.64404e-12
-5.45556e-13
-2.429e-12
-2.99636e-12
-2.59064e-12
-1.68341e-12
-7.08918e-13
4.20257e-14
4.55448e-13
5.61869e-13
4.68986e-13
2.95439e-13
1.28825e-13
1.26795e-14
-4.59383e-14
-6.05465e-14
-5.05668e-14
-3.22655e-14
-1.54684e-14
-4.09092e-15
1.75602e-15
3.64254e-15
3.37866e-15
2.33039e-15
1.27345e-15
5.15323e-16
8.76583e-17
-9.39651e-17
-1.32953e-16
-1.09053e-16
-6.95858e-17
-3.60303e-17
-1.42333e-17
-2.78398e-18
1.83787e-18
2.83176e-18
2.33677e-18
1.49971e-18
7.96917e-19
3.42982e-19
1.01035e-19
-3.36827e-21
-3.43631e-20
-3.36659e-20
-2.36522e-20
-1.20352e-20
0.999961
0.997493
0.999962
1.01842
1.04211
1.02914
0.933617
0.744751
0.5
0.262537
0.0849758
-0.0133115
-0.0450396
-0.0384394
-0.0198576
-0.00471768
0.00251112
0.00368607
0.00225945
0.000669094
-0.000176905
-0.000349474
-0.000217239
-5.89605e-05
2.2113e-05
3.47796e-05
1.91931e-05
3.57793e-06
-3.2318e-06
-3.45354e-06
-1.52336e-06
-4.80473e-08
4.29811e-07
3.22491e-07
9.90305e-08
-2.79558e-08
-5.00298e-08
-2.68188e-08
-3.62009e-09
5.65097e-09
5.07244e-09
1.82586e-09
-2.70563e-10
-7.40306e-10
-4.26496e-10
-6.77808e-11
7.98349e-11
6.72824e-11
1.0884e-11
-2.33261e-11
-2.5926e-11
-1.22852e-11
2.31994e-12
1.08505e-11
1.27886e-11
1.03508e-11
6.05105e-12
1.78416e-12
-1.33984e-12
-2.92573e-12
-3.13258e-12
-2.44253e-12
-1.40945e-12
-4.65398e-13
1.6513e-13
4.49117e-13
4.71553e-13
3.54735e-13
2.02233e-13
7.58208e-14
-2.51095e-15
-3.66456e-14
-4.13715e-14
-3.19318e-14
-1.91342e-14
-8.57832e-15
-1.95072e-15
1.20553e-15
2.08901e-15
1.83771e-15
1.22533e-15
6.5306e-16
2.60046e-16
4.54217e-17
-4.33023e-17
-6.18431e-17
-5.05121e-17
-3.21678e-17
-1.67609e-17
-6.8212e-18
-1.593e-18
5.62328e-19
1.0897e-18
9.397e-19
6.18442e-19
3.37761e-19
1.52402e-19
5.10551e-20
5.99511e-21
-1.31399e-20
1.00021
0.998989
0.996922
1.00302
1.02396
1.0442
1.02381
0.923771
0.737463
0.5
0.268847
0.0928295
-0.00829713
-0.0442768
-0.0406094
-0.0227243
-0.00671456
0.00178129
0.00382595
0.00268654
0.001003
-4.24486e-05
-0.000355818
-0.000270828
-0.000101219
6.15712e-06
3.63676e-05
2.58328e-05
8.25193e-06
-1.80508e-06
-3.89324e-06
-2.32337e-06
-5.09074e-07
3.4282e-07
4.06034e-07
1.88693e-07
1.12947e-08
-4.98808e-08
-3.919e-08
-1.26427e-08
3.04584e-09
6.04419e-09
3.34122e-09
5.07298e-10
-6.55434e-10
-5.97095e-10
-1.98752e-10
5.55552e-11
9.98723e-11
4.18086e-11
-1.90062e-11
-4.43935e-11
-3.91389e-11
-2.06821e-11
-2.41502e-12
9.66251e-12
1.4643e-11
1.40213e-11
1.0088e-11
5.09489e-12
7.57264e-13
-2.00837e-12
-3.07393e-12
-2.85538e-12
-1.97508e-12
-9.82052e-13
-2.10298e-13
2.29305e-13
3.78789e-13
3.4535e-13
2.35177e-13
1.21073e-13
3.76896e-14
-8.4609e-15
-2.54701e-14
-2.53719e-14
-1.82484e-14
-1.0318e-14
-4.33511e-15
-8.25195e-16
7.29565e-16
1.09983e-15
9.23367e-16
5.97501e-16
3.11658e-16
1.22585e-16
2.21594e-17
-1.84658e-17
-2.68485e-17
-2.19017e-17
-1.39456e-17
-7.31732e-18
-3.05931e-18
-8.12797e-19
1.32553e-19
3.88935e-19
3.54301e-19
2.39606e-19
1.35644e-19
5.08875e-20
1.00013
1
0.997981
0.997159
1.00648
1.02865
1.04519
1.0185
0.915024
0.731153
0.5
0.274394
0.0999444
-0.00347339
-0.0432147
-0.0423674
-0.025367
-0.00872811
0.000913719
0.00384278
0.00306586
0.00135109
0.000126998
-0.000336704
-0.000316604
-0.000147094
-1.60181e-05
3.41025e-05
3.16251e-05
1.36644e-05
5.30393e-07
-3.87081e-06
-3.0801e-06
-1.09846e-06
1.40983e-07
4.4523e-07
2.83651e-07
6.96027e-08
-3.71326e-08
-4.84902e-08
-2.35704e-08
-1.99445e-09
5.83604e-09
4.77278e-09
1.59045e-09
-3.37408e-10
-7.05712e-10
-3.56639e-10
6.7817e-12
1.45271e-10
1.1216e-10
2.67302e-11
-3.69785e-11
-6.05754e-11
-5.44824e-11
-3.47116e-11
-1.3123e-11
3.76587e-12
1.34349e-11
1.60791e-11
1.36011e-11
8.60472e-12
3.44912e-12
-3.69031e-13
-2.35594e-12
-2.77429e-12
-2.23827e-12
-1.36156e-12
-5.63564e-13
-3.13255e-14
2.2299e-13
2.76114e-13
2.2316e-13
1.38462e-13
6.42235e-14
1.56104e-14
-8.48329e-15
-1.57104e-14
-1.41311e-14
-9.54757e-15
-5.11908e-15
-2.02087e-15
-3.10473e-16
3.96717e-16
5.36121e-16
4.32199e-16
2.72475e-16
1.39576e-16
5.4449e-17
1.02746e-17
-7.30511e-18
-1.09415e-17
-8.9448e-18
-5.70577e-18
-3.01755e-18
-1.29352e-18
-3.79689e-19
1.301e-20
1.27385e-19
1.28716e-19
1.00003
1.00026
0.999477
0.997178
0.998022
1.01001
1.03255
1.04539
1.01331
0.90717
0.725606
0.5
0.279329
0.106439
0.00115474
-0.041932
-0.0437761
-0.0277924
-0.0107283
-6.2262e-05
0.00374582
0.00339021
0.00170247
0.000325544
-0.000292008
-0.000351728
-0.000194215
-4.36511e-05
2.76072e-05
3.59344e-05
1.94425e-05
3.72374e-06
-3.28056e-06
-3.68834e-06
-1.77217e-06
-1.80248e-07
4.20164e-07
3.69977e-07
1.43356e-07
-9.57551e-09
-5.17307e-08
-3.48862e-08
-9.34633e-09
4.02826e-09
5.76555e-09
2.84563e-09
2.09989e-10
-7.43677e-10
-5.67127e-10
-1.13045e-10
1.67012e-10
2.14455e-10
1.35409e-10
3.47551e-11
-3.6042e-11
-6.75158e-11
-6.85335e-11
-5.17378e-11
-2.82848e-11
-6.51303e-12
8.58341e-12
1.548e-11
1.54757e-11
1.13742e-11
6.0707e-12
1.60032e-12
-1.15128e-12
-2.2231e-12
-2.13972e-12
-1.51254e-12
-8.04488e-13
-2.61065e-13
5.21709e-14
1.73571e-13
1.76861e-13
1.28928e-13
7.33323e-14
3.051e-14
5.08242e-15
-6.19182e-15
-8.73989e-15
-7.22525e-15
-4.61949e-15
-2.36e-15
-8.77995e-16
-1.03249e-16
1.96759e-16
2.43793e-16
1.89797e-16
1.17011e-16
5.90631e-17
2.29421e-17
4.55314e-18
-2.6829e-18
-4.20513e-18
-3.45828e-18
-2.21458e-18
-1.18073e-18
-5.262e-19
-9.92064e-20
0.999982
1.00016
1.00019
0.998814
0.996675
0.999337
1.01347
1.03578
1.04504
1.0083
0.900056
0.720671
0.5
0.283765
0.112406
0.00559006
-0.0404869
-0.0448875
-0.0300111
-0.0126941
-0.0011218
0.00354557
0.00365566
0.00204819
0.000547226
-0.000222631
-0.000374148
-0.000240368
-7.5744e-05
1.67653e-05
3.82309e-05
2.51857e-05
7.65639e-06
-2.05941e-06
-4.04899e-06
-2.47372e-06
-6.13085e-07
3.15729e-07
4.3271e-07
2.26277e-07
3.33077e-08
-4.62345e-08
-4.46775e-08
-1.84465e-08
4.27671e-10
6.0206e-09
4.14111e-09
9.91789e-10
-6.88612e-10
-8.62256e-10
-3.89914e-10
6.3988e-11
2.71347e-10
2.72946e-10
1.78897e-10
7.08055e-11
-1.28573e-11
-6.12084e-11
-7.6531e-11
-6.72642e-11
-4.45688e-11
-1.93017e-11
7.11553e-13
1.20215e-11
1.50972e-11
1.26805e-11
7.97257e-12
3.4067e-12
2.202e-13
-1.37085e-12
-1.73774e-12
-1.42503e-12
-8.90651e-13
-4.1007e-13
-9.05703e-14
6.84938e-14
1.14689e-13
1.01194e-13
6.74487e-14
3.53401e-14
1.30827e-14
9.97875e-16
-3.77034e-15
-4.44448e-15
-3.42368e-15
-2.08491e-15
-1.0196e-15
-3.58688e-16
-2.96762e-17
9.00571e-17
1.04099e-16
7.86713e-17
4.75952e-17
2.37479e-17
9.21916e-18
1.93477e-18
-9.1293e-19
-1.52991e-18
-1.2749e-18
-7.49923e-19
0.999983
1.00003
1.00026
0.999957
0.998132
0.996485
1.00096
1.01677
1.03844
1.04428
1.00347
0.893561
0.716235
0.5
0.287787
0.11792
0.00983944
-0.0389223
-0.0457452
-0.0320359
-0.0146108
-0.00224409
0.00325288
0.00386074
0.00238115
0.000786327
-0.00013018
-0.000382519
-0.00028358
-0.000111168
1.68149e-06
3.81078e-05
3.04963e-05
1.21584e-05
-1.87577e-07
-4.07656e-06
-3.13969e-06
-1.13857e-06
1.23007e-07
4.57384e-07
3.10028e-07
9.01802e-08
-3.00397e-08
-5.09244e-08
-2.83946e-08
-4.92057e-09
5.34778e-09
5.41395e-09
2.10488e-09
-4.0622e-10
-1.18165e-09
-8.71674e-10
-2.89762e-10
1.33715e-10
3.14708e-10
3.21051e-10
2.39178e-10
1.30125e-10
3.03384e-11
-4.02483e-11
-7.45928e-11
-7.67149e-11
-5.80038e-11
-3.17865e-11
-8.53628e-12
6.42267e-12
1.25639e-11
1.22713e-11
8.75774e-12
4.64668e-12
1.42602e-12
-4.49735e-13
-1.16765e-12
-1.15857e-12
-8.32121e-13
-4.62467e-13
-1.80485e-13
-1.55979e-14
5.44501e-14
6.65613e-14
5.247e-14
3.23154e-14
1.56513e-14
5.08682e-15
-1.8738e-16
-2.0192e-15
-2.089e-15
-1.51585e-15
-8.84323e-16
-4.1582e-16
-1.38867e-16
-6.90555e-18
3.83949e-17
4.19766e-17
3.09393e-17
1.84274e-17
9.11577e-18
3.54438e-18
8.21187e-19
-5.05654e-19
0.999994
0.999978
1.00012
1.0003
0.999599
0.997507
0.996583
1.00278
1.01986
1.04061
1.04321
0.998845
0.887594
0.712213
0.5
0.291459
0.123039
0.0139117
-0.0372711
-0.0463857
-0.0338802
-0.0164687
-0.00341188
0.00287833
0.00400571
0.00269582
0.00103755
-1.67195e-05
-0.000376094
-0.000322165
-0.000148743
-1.73631e-05
3.52842e-05
3.50018e-05
1.7025e-05
2.31439e-06
-3.70405e-06
-3.70481e-06
-1.72849e-06
-1.60088e-07
4.31365e-07
3.85017e-07
1.57924e-07
-2.19972e-09
-5.18339e-08
-3.8186e-08
-1.18776e-08
3.56949e-09
6.61393e-09
3.73918e-09
4.19514e-10
-1.24625e-09
-1.41804e-09
-9.09391e-10
-3.26338e-10
8.47858e-11
2.95488e-10
3.50419e-10
3.02435e-10
1.99853e-10
8.5672e-11
-7.15954e-12
-6.1565e-11
-7.72205e-11
-6.54097e-11
-4.12189e-11
-1.71174e-11
4.27491e-15
8.58152e-12
1.03953e-11
8.38305e-12
5.12957e-12
2.23518e-12
3.34446e-13
-5.80927e-13
-8.06763e-13
-6.75108e-13
-4.32377e-13
-2.13866e-13
-6.77447e-14
7.89823e-15
3.44856e-14
3.47082e-14
2.49569e-14
1.43194e-14
6.42407e-15
1.79415e-15
-3.38267e-16
-9.78128e-16
-9.15868e-16
-6.3154e-16
-3.54776e-16
-1.61087e-16
-5.13039e-17
-9.97477e-19
1.53622e-17
1.60635e-17
1.15906e-17
6.8802e-18
2.7434e-18
1
0.999978
1.00001
1.00021
1.00025
0.999162
0.996984
0.996931
1.00472
1.02272
1.04237
1.04193
0.99441
0.88208
0.708541
0.5
0.294834
0.127814
0.0178165
-0.035558
-0.0468395
-0.0355575
-0.0182615
-0.00461091
0.00243196
0.00409206
0.00298801
0.00129613
0.000115423
-0.000354624
-0.00035473
-0.000187304
-3.99542e-05
2.95993e-05
3.83716e-05
2.20318e-05
5.39074e-06
-2.88565e-06
-4.10644e-06
-2.34777e-06
-5.28761e-07
3.44959e-07
4.41342e-07
2.32019e-07
3.71696e-08
-4.60462e-08
-4.69396e-08
-2.04456e-08
2.62791e-10
7.44064e-09
5.96209e-09
2.17075e-09
-5.52016e-10
-1.5897e-09
-1.52859e-09
-1.03728e-09
-5.00024e-10
-6.71111e-11
2.1778e-10
3.50196e-10
3.50972e-10
2.63555e-10
1.41799e-10
3.20174e-11
-3.95792e-11
-6.85679e-11
-6.54095e-11
-4.58207e-11
-2.3313e-11
-5.82769e-12
4.14179e-12
7.63926e-12
7.10887e-12
4.89555e-12
2.56847e-12
8.59838e-13
-9.45269e-14
-4.59418e-13
-4.7752e-13
-3.50533e-13
-2.02458e-13
-8.86647e-14
-2.07097e-14
1.03947e-14
1.88348e-14
1.65294e-14
1.10012e-14
5.9183e-15
2.46138e-15
5.70592e-16
-2.33999e-16
-4.36204e-16
-3.77413e-16
-2.491e-16
-1.35374e-16
-5.9601e-17
-1.82007e-17
1.39756e-19
5.7495e-18
5.9913e-18
1
0.999992
0.999971
1.00006
1.00029
1.00011
0.998686
0.996583
0.997489
1.00671
1.02537
1.04378
1.04049
0.990161
0.876961
0.705166
0.5
0.297951
0.132283
0.0215636
-0.0338022
-0.0471324
-0.0370806
-0.0199854
-0.00582946
0.00192307
0.00412207
0.00325471
0.00155785
0.0002638
-0.000318255
-0.000380175
-0.000225738
-6.55836e-05
2.10018e-05
4.03256e-05
2.69479e-05
8.95677e-06
-1.59761e-06
-4.28808e-06
-2.95701e-06
-9.71838e-07
1.92189e-07
4.69791e-07
3.07224e-07
8.72383e-08
-3.247e-08
-5.3832e-08
-3.08198e-08
-5.45186e-09
6.98394e-09
8.28708e-09
4.89861e-09
1.35563e-09
-7.59272e-10
-1.55848e-09
-1.58305e-09
-1.24287e-09
-7.64466e-10
-2.8523e-10
9.41614e-11
3.14196e-10
3.70553e-10
3.0675e-10
1.87392e-10
6.96409e-11
-1.31884e-11
-5.30068e-11
-5.86435e-11
-4.52121e-11
-2.6221e-11
-1.00362e-11
1.6272e-13
4.68051e-12
5.35374e-12
4.14835e-12
2.48252e-12
1.10086e-12
2.32878e-13
-1.77841e-13
-2.88511e-13
-2.49833e-13
-1.64662e-13
-8.63038e-14
-3.30201e-14
-4.31307e-15
7.19001e-15
9.20524e-15
7.27973e-15
4.53328e-15
2.29835e-15
8.85792e-16
1.60652e-16
-1.24413e-16
-1.81301e-16
-1.47123e-16
-9.35148e-17
-4.93301e-17
-2.15033e-17
-3.41148e-18
1
1
0.99998
0.999981
1.00013
1.00033
0.999903
0.998204
0.996314
0.998219
1.00873
1.02779
1.04489
1.03892
0.986088
0.872186
0.702049
0.5
0.300845
0.136483
0.0251626
-0.0320184
-0.0472861
-0.0384617
-0.0216386
-0.00705794
0.0013602
0.00409858
0.0034938
0.00181902
0.00042595
-0.000267441
-0.000397667
-0.000263018
-9.36834e-05
9.53547e-06
4.06399e-05
3.15467e-05
1.29056e-05
1.62339e-07
-4.20214e-06
-3.51515e-06
-1.47289e-06
-2.90141e-08
4.62558e-07
3.78307e-07
1.47095e-07
-9.6709e-09
-5.74948e-08
-4.28969e-08
-1.46667e-08
3.64617e-09
9.30773e-09
7.78939e-09
4.33178e-09
1.4495e-09
-3.4624e-10
-1.27464e-09
-1.59237e-09
-1.46618e-09
-1.04929e-09
-5.21699e-10
-5.44213e-11
2.45153e-10
3.55374e-10
3.21157e-10
2.14419e-10
9.88925e-11
1.23259e-11
-3.4195e-11
-4.72445e-11
-4.02794e-11
-2.5868e-11
-1.21794e-11
-2.75798e-12
2.07349e-12
3.53591e-12
3.15303e-12
2.1139e-12
1.10523e-12
3.97994e-13
1.23233e-14
-1.38067e-13
-1.55506e-13
-1.17956e-13
-7.08274e-14
-3.37581e-14
-1.09911e-14
1.23459e-16
3.93652e-15
4.11422e-15
2.99422e-15
1.75915e-15
8.44035e-16
3.0101e-16
3.81041e-17
-5.7226e-17
-7.08647e-17
-5.48248e-17
-3.00334e-17
1
1
0.999995
0.99997
1.00001
1.0002
1.00032
0.999638
0.997741
0.996174
0.999086
1.01073
1.03001
1.04575
1.03727
0.982184
0.867717
0.699155
0.5
0.303542
0.14044
0.0286225
-0.0302183
-0.0473191
-0.0397121
-0.0232206
-0.00828853
0.000751047
0.00402473
0.00370393
0.00207651
0.00059947
-0.000202868
-0.000406618
-0.000298222
-0.000123655
-4.67605e-06
3.91471e-05
3.56145e-05
1.71149e-05
2.37654e-06
-3.81186e-06
-3.9821e-06
-2.01198e-06
-3.17513e-07
4.13139e-07
4.40174e-07
2.16085e-07
2.4774e-08
-5.50494e-08
-5.51514e-08
-2.76712e-08
-4.19008e-09
6.90182e-09
8.9372e-09
7.11509e-09
4.54031e-09
2.26363e-09
4.53686e-10
-8.40063e-10
-1.53679e-09
-1.63569e-09
-1.28502e-09
-7.29577e-10
-2.02603e-10
1.54419e-10
3.09081e-10
3.06233e-10
2.19939e-10
1.15627e-10
3.26259e-11
-1.58785e-11
-3.39385e-11
-3.26615e-11
-2.29912e-11
-1.23839e-11
-4.41821e-12
1.37265e-13
1.96297e-12
2.14677e-12
1.61681e-12
9.56171e-13
4.34e-13
1.14672e-13
-3.64067e-14
-8.14651e-14
-7.46528e-14
-5.10138e-14
-2.81668e-14
-1.21854e-14
-3.20986e-15
7.58769e-16
1.87431e-15
1.70617e-15
1.15944e-15
6.46923e-16
2.94783e-16
9.68981e-17
7.4016e-18
-3.01591e-17
1
1
1
0.999986
0.999968
1.00005
1.00027
1.00027
0.999331
0.997313
0.996157
1.00006
1.01269
1.03204
1.04639
1.03556
0.978436
0.863517
0.696458
0.5
0.306067
0.144179
0.0319521
-0.0284107
-0.0472471
-0.0408424
-0.0247318
-0.00951485
0.000102559
0.00390383
0.00388439
0.00232765
0.000782063
-0.000125389
-0.000406655
-0.000330536
-0.00015489
-2.14445e-05
3.57355e-05
3.89565e-05
2.1453e-05
5.01009e-06
-3.09205e-06
-4.32093e-06
-2.5677e-06
-6.70478e-07
3.15091e-07
4.86753e-07
2.92957e-07
7.39986e-08
-4.16177e-08
-6.34564e-08
-4.23963e-08
-1.66355e-08
-6.13876e-10
5.94589e-09
7.37665e-09
6.77701e-09
5.34718e-09
3.44149e-09
1.39464e-09
-3.38097e-10
-1.39728e-09
-1.69851e-09
-1.42253e-09
-8.73615e-10
-3.26723e-10
5.80433e-11
2.4228e-10
2.67968e-10
2.0601e-10
1.19036e-10
4.53313e-11
-8.6078e-13
-2.11888e-11
-2.41392e-11
-1.86607e-11
-1.1151e-11
-4.94298e-12
-1.05e-12
7.91139e-13
1.28866e-12
1.11773e-12
7.38163e-13
3.88166e-13
1.49594e-13
2.05864e-14
-3.14978e-14
-4.09817e-14
-3.26307e-14
-2.04397e-14
-1.04372e-14
-4.07271e-15
-7.79741e-16
5.3192e-16
8.07388e-16
6.63508e-16
4.25235e-16
2.29336e-16
7.46694e-17
1
1
1
0.999999
0.999976
0.999976
1.0001
1.00032
1.00018
0.998997
0.996934
0.996254
1.00112
1.01461
1.03388
1.04684
1.0338
0.974837
0.85956
0.693933
0.5
0.308436
0.147722
0.0351593
-0.0266028
-0.0470838
-0.0418621
-0.0261733
-0.0107318
-0.000579061
0.00373921
0.00403491
0.00257022
0.000971575
-3.59692e-05
-0.00039759
-0.000359262
-0.000186791
-4.05314e-05
3.03452e-05
4.14017e-05
2.57856e-05
8.01469e-06
-2.02809e-06
-4.49843e-06
-3.11826e-06
-1.08472e-06
1.60246e-07
5.08655e-07
3.73305e-07
1.39671e-07
-1.15472e-08
-6.10993e-08
-5.33467e-08
-3.05577e-08
-1.2597e-08
-2.48119e-09
2.74574e-09
5.58513e-09
6.78402e-09
6.36299e-09
4.6115e-09
2.2677e-09
1.60678e-10
-1.17504e-09
-1.63569e-09
-1.44236e-09
-9.36563e-10
-4.10374e-10
-2.83813e-11
1.68282e-10
2.15965e-10
1.7813e-10
1.11153e-10
5.01775e-11
9.46136e-12
-1.06635e-11
-1.61626e-11
-1.39197e-11
-9.11522e-12
-4.64421e-12
-1.58575e-12
4.21044e-14
6.50229e-13
6.95344e-13
5.15897e-13
3.04628e-13
1.42304e-13
4.42287e-14
-2.78073e-15
-1.83011e-14
-1.84046e-14
-1.31809e-14
-7.65553e-15
-3.62633e-15
-1.26117e-15
-1.29318e-16
2.72377e-16
3.2173e-16
2.32037e-16
1
1
1
1
0.999993
0.999969
0.999995
1.00016
1.00035
1.00004
0.998649
0.99661
0.996454
1.00224
1.01647
1.03556
1.04713
1.03202
0.971377
0.855821
0.691564
0.5
0.310668
0.151087
0.0382517
-0.0248
-0.0468406
-0.0427801
-0.0275469
-0.0119352
-0.00128828
0.0035342
0.00415565
0.00280238
0.00116601
6.43521e-05
-0.000379393
-0.000383814
-0.000218784
-6.16617e-05
2.29631e-05
4.28053e-05
2.99809e-05
1.13334e-05
-6.1296e-07
-4.48323e-06
-3.64006e-06
-1.55588e-06
-6.17093e-08
4.91134e-07
4.46126e-07
2.1795e-07
3.79333e-08
-4.12382e-08
-5.24899e-08
-3.90097e-08
-2.4502e-08
-1.45534e-08
-7.33292e-09
-1.08071e-09
3.99893e-09
6.89712e-09
7.19806e-09
5.48889e-09
2.92776e-09
5.97509e-10
-8.94614e-10
-1.46187e-09
-1.35339e-09
-9.19726e-10
-4.47243e-10
-9.38068e-11
9.9056e-11
1.6024e-10
1.43109e-10
9.56666e-11
4.85121e-11
1.5017e-11
-3.09323e-12
-9.62176e-12
-9.55105e-12
-6.84938e-12
-3.87976e-12
-1.65433e-12
-3.50071e-13
2.33411e-13
3.81576e-13
3.27411e-13
2.1541e-13
1.14825e-13
4.71475e-14
1.04138e-14
-5.06823e-15
-8.83627e-15
-7.56312e-15
-4.97433e-15
-2.70004e-15
-1.18614e-15
-3.7043e-16
7.76727e-17
1
1
1
1
1
0.999985
0.999966
1.00002
1.00022
1.00036
0.999873
0.998298
0.996344
0.996747
1.00341
1.01826
1.03708
1.04729
1.03022
0.968048
0.852278
0.689332
0.5
0.312776
0.154289
0.0412361
-0.0230068
-0.0465277
-0.0436044
-0.0288545
-0.0131217
-0.0020202
0.00329203
0.00424704
0.00302265
0.00136354
0.000174501
-0.000352165
-0.000403714
-0.000250327
-8.45363e-05
1.36161e-05
4.30484e-05
3.39127e-05
1.49044e-05
1.15654e-06
-4.24168e-06
-4.10297e-06
-2.0737e-06
-3.59717e-07
4.15205e-07
4.92124e-07
2.95468e-07
1.01544e-07
-1.90035e-09
-3.30205e-08
-3.32203e-08
-2.81121e-08
-2.42966e-08
-1.98025e-08
-1.28463e-08
-4.49233e-09
2.71643e-09
6.85424e-09
7.59227e-09
5.92093e-09
3.30193e-09
9.29526e-10
-5.94862e-10
-1.21409e-09
-1.18417e-09
-8.38667e-10
-4.40679e-10
-1.33527e-10
4.26747e-11
1.0881e-10
1.07184e-10
7.66228e-11
4.24986e-11
1.66449e-11
1.5724e-12
-4.84587e-12
-5.99605e-12
-4.75863e-12
-2.95485e-12
-1.45087e-12
-4.88444e-13
-8.31586e-16
1.74434e-13
1.87231e-13
1.38661e-13
8.24869e-14
3.98029e-14
1.40148e-14
1.37942e-15
-3.20143e-15
-3.7862e-15
-2.88695e-15
-1.78546e-15
-7.422e-16
1
1
1
1
1
0.999999
0.999977
0.999969
1.00006
1.00027
1.00034
0.999674
0.997952
0.996139
0.997122
1.00461
1.01999
1.03846
1.04732
1.02841
0.964841
0.848913
0.687224
0.5
0.314771
0.157342
0.0441189
-0.0212264
-0.0461536
-0.0443425
-0.0300982
-0.0142888
-0.00277045
0.0030158
0.00430973
0.00322985
0.0015625
0.000293392
-0.000316114
-0.000418585
-0.000280922
-0.000108844
2.36216e-06
4.20336e-05
3.74594e-05
1.86611e-05
3.28093e-06
-3.73445e-06
-4.46399e-06
-2.61345e-06
-7.32515e-07
2.64608e-07
4.87207e-07
3.48891e-07
1.62224e-07
4.84072e-08
4.74793e-09
-7.45097e-09
-1.46113e-08
-2.27102e-08
-2.75866e-08
-2.55521e-08
-1.73898e-08
-6.98039e-09
1.69064e-09
6.49955e-09
7.45644e-09
5.88463e-09
3.3834e-09
1.13447e-09
-3.15634e-10
-9.3696e-10
-9.71427e-10
-7.16437e-10
-4.00798e-10
-1.48705e-10
2.6018e-12
6.65663e-11
7.48746e-11
5.74444e-11
3.43719e-11
1.55882e-11
3.86668e-12
-1.74295e-12
-3.39074e-12
-3.05878e-12
-2.07721e-12
-1.13458e-12
-4.75085e-13
-1.0617e-13
5.36441e-14
9.40283e-14
8.12373e-14
5.37987e-14
2.92497e-14
1.27336e-14
3.6528e-15
-3.57593e-16
-1.54004e-15
-1.48634e-15
1
1
1
1
1
1
0.999994
0.99997
0.999978
1.0001
1.00032
1.00029
0.999453
0.997619
0.995994
0.997568
1.00583
1.02164
1.03971
1.04725
1.0266
0.961748
0.845711
0.685229
0.5
0.316664
0.160259
0.0469061
-0.0194615
-0.0457261
-0.045001
-0.0312804
-0.0154344
-0.0035352
0.00270848
0.00434456
0.00342307
0.00176139
0.000419953
-0.000271532
-0.000428137
-0.000310111
-0.000134271
-1.07195e-05
3.96772e-05
4.04963e-05
2.25245e-05
5.75178e-06
-2.91936e-06
-4.66476e-06
-3.12794e-06
-1.15671e-06
3.86363e-08
4.13214e-07
3.51464e-07
1.9282e-07
8.81695e-08
4.81596e-08
3.48795e-08
1.99275e-08
-1.65849e-09
-2.15816e-08
-3.15785e-08
-2.98033e-08
-2.01386e-08
-8.41782e-09
8.55174e-10
5.81564e-09
6.84757e-09
5.454e-09
3.21495e-09
1.212e-09
-8.68653e-11
-6.70046e-10
-7.49868e-10
-5.76859e-10
-3.40634e-10
-1.44458e-10
-2.15895e-11
3.52986e-11
4.86384e-11
4.04409e-11
2.59424e-11
1.30789e-11
4.50645e-12
1.37922e-14
-1.66104e-12
-1.80988e-12
-1.35539e-12
-8.11388e-13
-3.90376e-13
-1.33061e-13
-6.54843e-15
3.85166e-14
4.28039e-14
3.20574e-14
1.93627e-14
9.66227e-15
3.83321e-15
2.05466e-16
1
1
1
1
1
1
1
0.999988
0.999965
0.999994
1.00015
1.00035
1.00022
0.999214
0.997304
0.995908
0.998077
1.00706
1.02322
1.04084
1.04708
1.0248
0.958764
0.842658
0.683336
0.5
0.318465
0.16305
0.0496032
-0.0177142
-0.0452515
-0.0455862
-0.0324034
-0.016557
-0.00431106
0.00237286
0.0043525
0.00360162
0.0019589
0.000553139
-0.000218774
-0.000432162
-0.00033748
-0.000160502
-2.55333e-05
3.59021e-05
4.28854e-05