/*--------------------------------*- C++ -*----------------------------------*\
  =========                 |
  \\      /  F ield         | OpenFOAM: The Open Source CFD Toolbox
   \\    /   O peration     | Website:  https://openfoam.org
    \\  /    A nd           | Version:  7
     \\/     M anipulation  |
\*---------------------------------------------------------------------------*/
FoamFile
{
    version     2.0;
    format      ascii;
    class       volScalarField;
    location    "0.95";
    object      T;
}
// * * * * * * * * * * * * * * * * * * * * * * * * * * * * * * * * * * * * * //

dimensions      [0 0 0 1 0 0 0];

internalField   nonuniform List<scalar> 
10000
(
0.5
0.0669146
-0.0353169
-0.0277115
-0.00789976
0.00112931
0.00220711
0.000963794
3.88563e-05
-0.000206219
-0.000130475
-2.60559e-05
1.76156e-05
1.74837e-05
6.08561e-06
-9.06071e-07
-2.20759e-06
-1.13469e-06
-1.06163e-07
2.47859e-07
1.87024e-07
4.9395e-08
-2.13888e-08
-2.77866e-08
-1.17496e-08
4.15034e-10
3.66278e-09
2.25287e-09
3.96249e-10
-4.00522e-10
-3.77204e-10
-1.28468e-10
2.72483e-11
5.58372e-11
2.85372e-11
2.14233e-12
-7.093e-12
-5.30845e-12
-1.37604e-12
6.83547e-13
8.64619e-13
3.65828e-13
-1.85477e-14
-1.22706e-13
-7.57075e-14
-1.30586e-14
1.42865e-14
1.34532e-14
4.59894e-15
-1.03441e-15
-2.08645e-15
-1.06893e-15
-6.98306e-17
2.83845e-16
2.10859e-16
4.94667e-17
-3.99866e-17
-5.24743e-17
-3.28901e-17
-1.28719e-17
-7.90481e-19
5.99353e-18
1.04288e-17
1.28513e-17
1.25149e-17
9.40422e-18
4.6555e-18
-8.45013e-20
-3.48377e-18
-4.97565e-18
-4.74506e-18
-3.42973e-18
-1.76357e-18
-3.15708e-19
6.20208e-19
1.00762e-18
9.76016e-19
7.15526e-19
3.96533e-19
1.29346e-19
-4.05134e-20
-1.15554e-19
-1.22973e-19
-9.5017e-20
-5.73366e-20
-2.50441e-20
-3.8539e-21
6.61159e-21
9.4684e-21
8.20776e-21
5.50408e-21
2.91565e-21
1.07583e-21
4.38158e-23
-3.79432e-22
-4.43649e-22
-3.48735e-22
-2.17565e-22
-1.11464e-22
-2.28656e-23
0.933085
0.5
0.14482
-0.0139075
-0.0411718
-0.0230289
-0.00507433
0.00215701
0.00250723
0.00101071
-9.38734e-08
-0.000255324
-0.000158213
-3.18213e-05
2.20241e-05
2.24005e-05
8.17946e-06
-9.48178e-07
-2.86443e-06
-1.56602e-06
-2.00131e-07
3.13491e-07
2.58847e-07
7.77035e-08
-2.39625e-08
-3.79444e-08
-1.77304e-08
-5.20299e-10
4.83208e-09
3.30976e-09
7.47241e-10
-4.84999e-10
-5.38962e-10
-2.10525e-10
2.14979e-11
7.6803e-11
4.4227e-11
6.23631e-12
-9.12446e-12
-7.90475e-12
-2.489e-12
7.31468e-13
1.23561e-12
5.98792e-13
2.3735e-14
-1.6565e-13
-1.17333e-13
-2.77376e-14
1.72201e-14
1.99082e-14
8.00719e-15
-7.43852e-16
-2.93938e-15
-1.71679e-15
-2.15376e-16
4.20577e-16
3.82535e-16
1.48532e-16
-1.66898e-17
-7.63333e-17
-8.06328e-17
-7.04019e-17
-5.70084e-17
-3.83743e-17
-1.43915e-17
9.60135e-18
2.67962e-17
3.33299e-17
2.97623e-17
1.98456e-17
8.24981e-18
-1.32459e-18
-7.02468e-18
-8.77302e-18
-7.63854e-18
-5.08043e-18
-2.36414e-18
-2.70445e-19
9.27952e-19
1.3257e-18
1.19427e-18
8.23235e-19
4.28876e-19
1.27552e-19
-4.83967e-20
-1.17687e-19
-1.18613e-19
-8.79481e-20
-5.13041e-20
-2.189e-20
-3.56364e-21
5.06133e-21
7.26566e-21
6.21283e-21
4.11991e-21
2.18199e-21
8.37201e-22
9.26433e-23
-2.09987e-22
-2.83792e-22
1.03532
0.85518
0.5
0.182448
0.00830364
-0.0419281
-0.032441
-0.0120093
3.84408e-05
0.00307766
0.00201936
0.000522644
-0.000189734
-0.000261936
-0.000118925
-6.07707e-06
2.86043e-05
2.02421e-05
5.19525e-06
-2.29056e-06
-2.95623e-06
-1.27806e-06
8.46554e-09
3.71768e-07
2.40892e-07
5.03709e-08
-3.68802e-08
-3.89006e-08
-1.47958e-08
1.67178e-09
5.45504e-09
3.1046e-09
4.35545e-10
-6.33136e-10
-5.48229e-10
-1.74177e-10
4.83609e-11
8.41877e-11
4.13499e-11
2.16017e-12
-1.1009e-11
-7.96972e-12
-1.97741e-12
1.09386e-12
1.32734e-12
5.52764e-13
-3.45286e-14
-1.91102e-13
-1.17027e-13
-1.98995e-14
2.23944e-14
2.09998e-14
7.12631e-15
-1.73211e-15
-3.39279e-15
-1.74605e-15
-7.79938e-17
5.83325e-16
5.39518e-16
2.99368e-16
1.14112e-16
8.74201e-18
-5.96764e-17
-1.12148e-16
-1.41237e-16
-1.35993e-16
-9.8834e-17
-4.52552e-17
5.63124e-18
4.00376e-17
5.32838e-17
4.86286e-17
3.35526e-17
1.59065e-17
1.36049e-18
-7.47855e-18
-1.06424e-17
-9.72675e-18
-6.77412e-18
-3.48944e-18
-8.96062e-19
6.49932e-19
1.25128e-18
1.22101e-18
8.89965e-19
5.03337e-19
1.94234e-19
3.93128e-21
-8.13505e-20
-9.69272e-20
-7.78436e-20
-4.90555e-20
-2.40007e-20
-7.33224e-21
1.3446e-21
4.41935e-21
4.42252e-21
3.21582e-21
1.91435e-21
6.32382e-22
1.02771
1.01391
0.817552
0.5
0.206389
0.0268058
-0.0388677
-0.0384381
-0.0184166
-0.00302402
0.00284105
0.00282245
0.00118552
4.2633e-05
-0.000296282
-0.000211922
-6.02234e-05
1.88442e-05
2.95095e-05
1.43558e-05
1.17969e-06
-3.31264e-06
-2.541e-06
-7.3481e-07
2.46588e-07
3.7721e-07
1.7883e-07
8.57306e-09
-4.67553e-08
-3.3615e-08
-8.56666e-09
4.24374e-09
5.36576e-09
2.31171e-09
-5.87231e-11
-7.29434e-10
-4.68781e-10
-9.40045e-11
7.80718e-11
8.04024e-11
3.01652e-11
-4.11807e-12
-1.18724e-11
-6.69116e-12
-8.75698e-13
1.44559e-12
1.23383e-12
3.86161e-13
-1.17312e-13
-1.9636e-13
-9.5708e-14
-4.07209e-15
2.65641e-14
1.89769e-14
4.39475e-15
-3.13757e-15
-3.7206e-15
-1.71978e-15
-5.8059e-17
5.98253e-16
6.5122e-16
5.40342e-16
4.26803e-16
2.99607e-16
1.35171e-16
-4.22311e-17
-1.81903e-16
-2.46594e-16
-2.32227e-16
-1.63037e-16
-7.45635e-17
2.51625e-18
5.11026e-17
6.84389e-17
6.17623e-17
4.23465e-17
2.05648e-17
3.18557e-18
-7.12101e-18
-1.08158e-17
-9.98378e-18
-6.9985e-18
-3.70321e-18
-1.1315e-18
3.96578e-19
1.01213e-18
1.03115e-18
7.68569e-19
4.48768e-19
1.89942e-19
2.80961e-20
-4.78829e-20
-6.66946e-20
-5.6478e-20
-3.71154e-20
-1.93604e-20
-7.13445e-21
-4.48705e-22
2.19164e-21
2.71463e-21
1.0079
1.04117
0.991696
0.793611
0.5
0.223365
0.042154
-0.0343031
-0.0421139
-0.0239644
-0.00647534
0.00197761
0.00332499
0.00186777
0.000400612
-0.000245072
-0.000285991
-0.000129611
-8.12739e-06
3.15022e-05
2.39228e-05
7.25577e-06
-1.97863e-06
-3.44893e-06
-1.76137e-06
-1.8454e-07
3.9124e-07
3.18273e-07
9.93709e-08
-2.70434e-08
-4.76358e-08
-2.40385e-08
-2.00424e-09
5.81838e-09
4.51192e-09
1.29237e-09
-4.84176e-10
-7.13816e-10
-3.342e-10
-9.51053e-12
9.45107e-11
6.64246e-11
1.60473e-11
-9.3507e-12
-1.11618e-11
-4.66524e-12
2.59163e-13
1.59614e-12
9.94995e-13
1.82139e-13
-1.81529e-13
-1.77724e-13
-6.36949e-14
1.19976e-14
2.7917e-14
1.51613e-14
1.35262e-15
-4.32109e-15
-4.04889e-15
-2.07677e-15
-6.07993e-16
1.03414e-16
4.58903e-16
7.12292e-16
8.58954e-16
8.2008e-16
5.90437e-16
2.56718e-16
-6.15169e-17
-2.74595e-16
-3.51424e-16
-3.13362e-16
-2.09769e-16
-9.22479e-17
2.37282e-18
5.77899e-17
7.52033e-17
6.5988e-17
4.41657e-17
2.11792e-17
3.67963e-18
-6.26146e-18
-9.64683e-18
-8.8145e-18
-6.11867e-18
-3.24382e-18
-1.05797e-18
2.16855e-19
7.30101e-19
7.62083e-19
5.72945e-19
3.39366e-19
1.50573e-19
3.2241e-20
-2.45078e-20
-4.05755e-20
-3.5893e-20
-2.42498e-20
-1.34382e-20
-3.55581e-21
0.998871
1.02303
1.04193
0.973194
0.776635
0.5
0.236308
0.0551561
-0.0291433
-0.0442026
-0.0286476
-0.0100134
0.000663016
0.00351519
0.00249279
0.000838178
-0.000110139
-0.000325109
-0.00020245
-4.98925e-05
2.37007e-05
3.12705e-05
1.49634e-05
1.26022e-06
-3.52123e-06
-2.80623e-06
-8.96015e-07
2.13495e-07
4.11962e-07
2.18731e-07
2.6977e-08
-4.67862e-08
-3.99564e-08
-1.32132e-08
2.98683e-09
5.99819e-09
3.17653e-09
3.49637e-10
-7.21182e-10
-5.94782e-10
-1.85006e-10
5.48484e-11
9.32947e-11
4.65282e-11
3.12952e-12
-1.20509e-11
-9.11191e-12
-2.48922e-12
1.09936e-12
1.50505e-12
6.81488e-13
-3.9429e-16
-2.09297e-13
-1.41013e-13
-3.01237e-14
2.42749e-14
2.69571e-14
1.15961e-14
-3.51134e-16
-4.49334e-15
-4.21578e-15
-2.98414e-15
-2.05666e-15
-1.31268e-15
-4.69257e-16
4.29201e-16
1.12493e-15
1.41025e-15
1.26474e-15
8.31774e-16
3.16652e-16
-1.09297e-16
-3.57546e-16
-4.23154e-16
-3.56332e-16
-2.2644e-16
-9.36425e-17
5.42402e-18
5.88989e-17
7.2782e-17
6.14579e-17
3.97741e-17
1.85129e-17
3.16739e-18
-5.11097e-18
-7.7147e-18
-6.90373e-18
-4.71129e-18
-2.47734e-18
-8.31257e-19
1.05992e-19
4.78405e-19
5.06688e-19
3.81941e-19
2.27835e-19
1.04109e-19
2.67593e-20
-1.08096e-20
-2.22724e-20
-2.01365e-20
0.997793
1.00507
1.03244
1.03887
0.957846
0.763692
0.5
0.246668
0.0663827
-0.0238073
-0.0451887
-0.0325522
-0.0134733
-0.000959178
0.00341734
0.00301639
0.00131432
9.733e-05
-0.000320961
-0.000268331
-0.000102053
5.40097e-06
3.42592e-05
2.29965e-05
6.2179e-06
-2.43292e-06
-3.56994e-06
-1.78399e-06
-1.83405e-07
4.05355e-07
3.37003e-07
1.12392e-07
-2.33436e-08
-4.9923e-08
-2.74106e-08
-3.82702e-09
5.6432e-09
5.03276e-09
1.74445e-09
-3.29807e-10
-7.55153e-10
-4.1639e-10
-5.49403e-11
8.92641e-11
7.76865e-11
2.57649e-11
-6.16114e-12
-1.20781e-11
-6.34363e-12
-6.20387e-13
1.52241e-12
1.22565e-12
3.64863e-13
-1.30192e-13
-2.01869e-13
-9.70807e-14
-2.23978e-15
3.12108e-14
2.52471e-14
1.04803e-14
1.07517e-15
-2.38395e-15
-3.3534e-15
-3.92245e-15
-4.23246e-15
-3.7961e-15
-2.50635e-15
-7.83667e-16
7.6569e-16
1.70665e-15
1.92466e-15
1.5762e-15
9.45477e-16
3.05288e-16
-1.66511e-16
-4.07261e-16
-4.44631e-16
-3.52801e-16
-2.11583e-16
-8.05117e-17
9.94245e-18
5.44624e-17
6.30323e-17
5.09142e-17
3.17005e-17
1.41899e-17
2.23144e-18
-3.87032e-18
-5.60646e-18
-4.88743e-18
-3.26882e-18
-1.6977e-18
-5.77017e-19
4.51762e-20
2.88144e-19
3.08178e-19
2.32352e-19
1.38907e-19
6.65018e-20
7.98392e-21
0.999036
0.997843
1.01201
1.03844
1.0343
0.944844
0.753332
0.5
0.255249
0.0762288
-0.0184971
-0.0453946
-0.0357829
-0.0167686
-0.00277966
0.00306919
0.00341666
0.00179625
0.000362307
-0.000271062
-0.000319196
-0.000159502
-2.26983e-05
3.14482e-05
3.00039e-05
1.24139e-05
-5.01571e-08
-3.78026e-06
-2.69448e-06
-7.81473e-07
2.58291e-07
4.1876e-07
2.17163e-07
2.5954e-08
-4.75585e-08
-4.11123e-08
-1.42496e-08
2.56399e-09
6.11199e-09
3.4591e-09
5.34283e-10
-6.84858e-10
-6.35995e-10
-2.29591e-10
3.61861e-11
9.51507e-11
5.43645e-11
8.20053e-12
-1.10433e-11
-1.00947e-11
-3.52889e-12
6.86056e-13
1.55545e-12
8.5141e-13
9.9088e-14
-2.00084e-13
-1.72195e-13
-5.85322e-14
1.38878e-14
3.15931e-14
2.35519e-14
1.30576e-14
7.02938e-15
3.56109e-15
1.30278e-16
-3.50172e-15
-6.15752e-15
-6.86126e-15
-5.60639e-15
-3.18732e-15
-6.34348e-16
1.2694e-15
2.19443e-15
2.22227e-15
1.67242e-15
9.14287e-16
2.34973e-16
-2.15231e-16
-4.12679e-16
-4.14958e-16
-3.09305e-16
-1.74006e-16
-5.95056e-17
1.34505e-17
4.57949e-17
4.93586e-17
3.80403e-17
2.27362e-17
9.73808e-18
1.33362e-18
-2.71624e-18
-3.73858e-18
-3.16815e-18
-2.07491e-18
-1.06291e-18
-3.63448e-19
1.54818e-20
1.60812e-19
1.74369e-19
1.20133e-19
0.999961
0.997493
0.999962
1.01842
1.04211
1.02914
0.933617
0.744751
0.5
0.262537
0.0849758
-0.0133115
-0.0450396
-0.0384394
-0.0198576
-0.00471768
0.00251112
0.00368607
0.00225945
0.000669094
-0.000176905
-0.000349474
-0.000217239
-5.89605e-05
2.2113e-05
3.47796e-05
1.91931e-05
3.57793e-06
-3.2318e-06
-3.45354e-06
-1.52336e-06
-4.80473e-08
4.29811e-07
3.2249e-07
9.90302e-08
-2.79562e-08
-5.00298e-08
-2.68177e-08
-3.61799e-09
5.65286e-09
5.07188e-09
1.82066e-09
-2.81011e-10
-7.53962e-10
-4.38924e-10
-7.38717e-11
8.34855e-11
8.06101e-11
3.01769e-11
-3.92e-12
-1.20011e-11
-7.07845e-12
-1.17953e-12
1.37594e-12
1.31507e-12
4.78288e-13
-8.53097e-14
-2.18847e-13
-1.37314e-13
-3.70088e-14
1.26061e-14
2.26363e-14
2.00245e-14
1.81676e-14
1.73552e-14
1.42538e-14
7.88581e-15
1.65831e-16
-6.14092e-15
-9.26734e-15
-9.05035e-15
-6.52738e-15
-3.16074e-15
-1.84613e-16
1.71987e-15
2.43708e-15
2.23874e-15
1.55097e-15
7.64872e-16
1.34607e-16
-2.39858e-16
-3.75125e-16
-3.47383e-16
-2.4275e-16
-1.27444e-16
-3.80704e-17
1.44434e-17
3.51063e-17
3.52412e-17
2.59113e-17
1.48617e-17
6.07488e-18
6.84626e-19
-1.76794e-18
-2.30549e-18
-1.89895e-18
-1.21854e-18
-6.14532e-19
-2.1903e-19
5.24594e-20
1.00021
0.998989
0.996922
1.00302
1.02396
1.0442
1.02381
0.923771
0.737463
0.5
0.268847
0.0928295
-0.00829713
-0.0442768
-0.0406094
-0.0227243
-0.00671456
0.00178129
0.00382595
0.00268654
0.001003
-4.24486e-05
-0.000355818
-0.000270828
-0.000101219
6.15712e-06
3.63676e-05
2.58328e-05
8.25193e-06
-1.80508e-06
-3.89324e-06
-2.32337e-06
-5.09073e-07
3.42821e-07
4.06035e-07
1.88693e-07
1.12936e-08
-4.98814e-08
-3.9188e-08
-1.2636e-08
3.05689e-09
6.05568e-09
3.34644e-09
4.99759e-10
-6.78139e-10
-6.30924e-10
-2.33974e-10
3.05386e-11
9.35437e-11
5.59351e-11
1.01419e-11
-1.0215e-11
-1.02421e-11
-3.95175e-12
4.41098e-13
1.54837e-12
9.51544e-13
1.83828e-13
-1.76532e-13
-1.99746e-13
-1.10234e-13
-3.977e-14
-1.06231e-14
-3.12686e-16
9.57986e-15
2.13608e-14
2.9208e-14
2.87106e-14
2.04438e-14
8.52142e-15
-2.41447e-15
-9.3512e-15
-1.15324e-14
-9.95049e-15
-6.39154e-15
-2.57308e-15
3.63731e-16
1.97892e-15
2.38756e-15
1.99882e-15
1.27111e-15
5.55345e-16
3.9333e-17
-2.33054e-16
-3.07453e-16
-2.62822e-16
-1.72091e-16
-8.39492e-17
-2.1061e-17
1.29868e-17
2.46382e-17
2.3115e-17
1.62378e-17
8.94507e-18
3.48598e-18
2.99897e-19
-1.06993e-18
-1.32231e-18
-1.07237e-18
-5.71647e-19
1.00013
1
0.997981
0.997159
1.00648
1.02865
1.04519
1.0185
0.915024
0.731153
0.5
0.274394
0.0999444
-0.00347339
-0.0432147
-0.0423674
-0.025367
-0.00872811
0.000913719
0.00384278
0.00306586
0.00135109
0.000126998
-0.000336704
-0.000316604
-0.000147094
-1.60181e-05
3.41025e-05
3.16251e-05
1.36644e-05
5.30393e-07
-3.87081e-06
-3.0801e-06
-1.09846e-06
1.40984e-07
4.45232e-07
2.83651e-07
6.95991e-08
-3.71387e-08
-4.8494e-08
-2.35641e-08
-1.97186e-09
5.87407e-09
4.81586e-09
1.62131e-09
-3.35444e-10
-7.40108e-10
-4.20871e-10
-6.86096e-11
8.18998e-11
7.89789e-11
3.01822e-11
-3.29679e-12
-1.16881e-11
-7.16818e-12
-1.37121e-12
1.3033e-12
1.38289e-12
6.0417e-13
1.9282e-14
-1.71913e-13
-1.49362e-13
-9.25817e-14
-6.54876e-14
-5.64211e-14
-4.15765e-14
-1.45392e-14
1.56309e-14
3.69536e-14
4.3335e-14
3.61819e-14
2.14791e-14
5.9205e-15
-5.74748e-15
-1.16307e-14
-1.22491e-14
-9.46579e-15
-5.39925e-15
-1.68279e-15
8.27443e-16
1.98323e-15
2.08468e-15
1.59405e-15
9.26236e-16
3.4883e-16
-2.62149e-17
-1.99592e-16
-2.28421e-16
-1.8099e-16
-1.1112e-16
-5.01614e-17
-9.92296e-18
1.01293e-17
1.5916e-17
1.40257e-17
9.43576e-18
5.00128e-18
1.85341e-18
1.35871e-19
-7.63923e-19
1.00003
1.00026
0.999477
0.997178
0.998022
1.01001
1.03255
1.04539
1.01331
0.90717
0.725606
0.5
0.279329
0.106439
0.00115474
-0.041932
-0.0437761
-0.0277924
-0.0107283
-6.2262e-05
0.00374582
0.00339021
0.00170247
0.000325544
-0.000292008
-0.000351728
-0.000194215
-4.36511e-05
2.76072e-05
3.59344e-05
1.94425e-05
3.72374e-06
-3.28056e-06
-3.68834e-06
-1.77217e-06
-1.80246e-07
4.20168e-07
3.69979e-07
1.43349e-07
-9.59764e-09
-5.17625e-08
-3.49115e-08
-9.34237e-09
4.0785e-09
5.86106e-09
2.9627e-09
3.09633e-10
-6.99166e-10
-5.96923e-10
-2.08942e-10
3.67509e-11
9.11326e-11
5.32372e-11
9.32171e-12
-1.00331e-11
-1.00433e-11
-3.99004e-12
3.28075e-13
1.52993e-12
1.06297e-12
3.68759e-13
7.28411e-15
-7.10364e-14
-6.17483e-14
-7.09756e-14
-1.01116e-13
-1.17834e-13
-1.01169e-13
-5.71732e-14
-5.92951e-15
3.37245e-14
5.25004e-14
5.11982e-14
3.68699e-14
1.8149e-14
1.85848e-15
-8.45309e-15
-1.2344e-14
-1.13922e-14
-7.90809e-15
-3.94202e-15
-7.85967e-16
1.07727e-15
1.75299e-15
1.63235e-15
1.1423e-15
6.03073e-16
1.87239e-16
-5.61729e-17
-1.52419e-16
-1.54802e-16
-1.14257e-16
-6.58633e-17
-2.73892e-17
-3.7847e-18
7.02202e-18
9.52137e-18
7.91357e-18
5.20218e-18
2.0097e-18
0.999982
1.00016
1.00019
0.998814
0.996675
0.999337
1.01347
1.03578
1.04504
1.0083
0.900056
0.720671
0.5
0.283765
0.112406
0.00559006
-0.0404869
-0.0448875
-0.0300111
-0.0126941
-0.0011218
0.00354557
0.00365566
0.00204819
0.000547226
-0.000222631
-0.000374148
-0.000240368
-7.5744e-05
1.67653e-05
3.82309e-05
2.51857e-05
7.65639e-06
-2.05941e-06
-4.049e-06
-2.47373e-06
-6.13084e-07
3.15741e-07
4.32726e-07
2.26279e-07
3.32724e-08
-4.63187e-08
-4.47952e-08
-1.85529e-08
3.90478e-10
6.0947e-09
4.32722e-09
1.24249e-09
-4.51548e-10
-7.14908e-10
-3.7455e-10
-4.60852e-11
8.39735e-11
7.45576e-11
2.70265e-11
-4.10187e-12
-1.15031e-11
-7.04876e-12
-1.52782e-12
1.07763e-12
1.29398e-12
7.14117e-13
2.77336e-13
1.39041e-13
1.23005e-13
7.83053e-14
-2.01501e-14
-1.2274e-13
-1.78577e-13
-1.71357e-13
-1.17293e-13
-4.65175e-14
1.42539e-14
5.04858e-14
6.04084e-14
5.0858e-14
3.18728e-14
1.23709e-14
-2.1189e-15
-9.76204e-15
-1.14478e-14
-9.374e-15
-5.82639e-15
-2.46279e-15
-1.11078e-16
1.08504e-15
1.37933e-15
1.1532e-15
7.40025e-16
3.52346e-16
8.28728e-17
-5.89818e-17
-1.04983e-16
-9.63525e-17
-6.65847e-17
-3.60937e-17
-1.37527e-17
-9.48023e-19
4.35486e-18
5.45587e-18
0.999983
1.00003
1.00026
0.999957
0.998132
0.996485
1.00096
1.01677
1.03844
1.04428
1.00347
0.893561
0.716235
0.5
0.287787
0.11792
0.00983944
-0.0389223
-0.0457452
-0.0320359
-0.0146108
-0.00224409
0.00325288
0.00386074
0.00238115
0.000786327
-0.00013018
-0.000382519
-0.00028358
-0.000111168
1.68149e-06
3.81078e-05
3.04963e-05
1.21584e-05
-1.87578e-07
-4.07657e-06
-3.1397e-06
-1.13857e-06
1.23036e-07
4.5745e-07
3.10103e-07
9.02055e-08
-3.01281e-08
-5.11535e-08
-2.87229e-08
-5.24115e-09
5.16549e-09
5.463e-09
2.39335e-09
3.71286e-11
-7.24747e-10
-5.39555e-10
-1.64342e-10
5.03922e-11
8.81353e-11
4.78602e-11
6.80756e-12
-1.02496e-11
-9.7436e-12
-4.09009e-12
-1.71463e-13
9.75939e-13
7.37176e-13
3.71711e-13
2.91991e-13
3.70784e-13
3.94769e-13
2.83505e-13
8.6737e-14
-1.02065e-13
-2.15613e-13
-2.36363e-13
-1.86025e-13
-1.02908e-13
-2.23272e-14
3.39455e-14
5.94665e-14
5.92389e-14
4.37298e-14
2.35426e-14
6.18657e-15
-4.86474e-15
-9.46764e-15
-9.37594e-15
-6.85869e-15
-3.78961e-15
-1.28379e-15
2.59477e-16
9.16553e-16
9.74983e-16
7.39981e-16
4.36123e-16
1.85219e-16
2.68562e-17
-4.7695e-17
-6.59144e-17
-5.5468e-17
-3.59988e-17
-1.88304e-17
-3.50815e-18
0.999994
0.999978
1.00012
1.0003
0.999599
0.997507
0.996583
1.00278
1.01986
1.04061
1.04321
0.998845
0.887594
0.712213
0.5
0.291459
0.123039
0.0139117
-0.0372711
-0.0463857
-0.0338802
-0.0164687
-0.00341188
0.00287833
0.00400571
0.00269582
0.00103755
-1.67195e-05
-0.000376094
-0.000322165
-0.000148743
-1.73631e-05
3.52842e-05
3.50019e-05
1.7025e-05
2.3144e-06
-3.70406e-06
-3.70485e-06
-1.72852e-06
-1.6006e-07
4.31511e-07
3.8528e-07
1.58213e-07
-2.04541e-09
-5.19695e-08
-3.86687e-08
-1.26123e-08
2.8089e-09
6.09135e-09
3.6399e-09
7.70488e-10
-5.81015e-10
-6.70665e-10
-3.08556e-10
-1.40149e-11
8.73592e-11
6.84047e-11
2.25349e-11
-5.00852e-12
-1.08031e-11
-6.61072e-12
-1.95316e-12
6.23533e-14
2.02047e-13
-6.31317e-14
-1.30632e-14
3.1688e-13
6.25049e-13
7.06777e-13
5.49598e-13
2.64278e-13
-1.70716e-14
-2.06217e-13
-2.7632e-13
-2.48188e-13
-1.65276e-13
-7.1234e-14
3.67839e-15
4.65933e-14
5.90249e-14
5.05847e-14
3.27417e-14
1.46103e-14
1.2762e-15
-5.89398e-15
-7.93369e-15
-6.83177e-15
-4.48216e-15
-2.1741e-15
-5.20108e-16
3.74092e-16
6.74361e-16
6.24802e-16
4.34306e-16
2.35213e-16
8.75766e-17
2.56928e-18
-3.28144e-17
-3.83185e-17
-2.73773e-17
1
0.999978
1.00001
1.00021
1.00025
0.999162
0.996984
0.996931
1.00472
1.02272
1.04237
1.04193
0.99441
0.88208
0.708541
0.5
0.294834
0.127814
0.0178165
-0.035558
-0.0468395
-0.0355575
-0.0182615
-0.00461091
0.00243196
0.00409206
0.00298801
0.00129613
0.000115423
-0.000354624
-0.00035473
-0.000187304
-3.99542e-05
2.95993e-05
3.83716e-05
2.20318e-05
5.39077e-06
-2.88567e-06
-4.10654e-06
-2.34794e-06
-5.28881e-07
3.45069e-07
4.41811e-07
2.32812e-07
3.80405e-08
-4.54776e-08
-4.70091e-08
-2.12648e-08
-1.11277e-09
5.93857e-09
4.81663e-09
1.71667e-09
-2.50033e-10
-7.308e-10
-4.62205e-10
-1.09796e-10
6.57661e-11
8.36854e-11
4.14449e-11
4.81674e-12
-8.88951e-12
-7.83344e-12
-3.31856e-12
-8.08965e-13
-5.65601e-13
-1.02879e-12
-1.07523e-12
-5.32362e-13
2.29471e-13
8.03221e-13
9.97767e-13
8.46536e-13
5.03953e-13
1.37596e-13
-1.36829e-13
-2.74149e-13
-2.87056e-13
-2.19936e-13
-1.23083e-13
-3.52254e-14
2.34257e-14
4.95714e-14
5.06322e-14
3.78613e-14
2.1281e-14
7.27467e-15
-1.58628e-15
-5.46157e-15
-5.8469e-15
-4.46122e-15
-2.62796e-15
-1.09436e-15
-1.1951e-16
3.37727e-16
4.42276e-16
3.66191e-16
2.34778e-16
1.16471e-16
3.85748e-17
-1.45937e-17
1
0.999992
0.999971
1.00006
1.00029
1.00011
0.998686
0.996583
0.997489
1.00671
1.02537
1.04378
1.04049
0.990161
0.876961
0.705166
0.5
0.297951
0.132283
0.0215636
-0.0338022
-0.0471324
-0.0370806
-0.0199854
-0.00582946
0.00192307
0.00412207
0.00325471
0.00155785
0.0002638
-0.000318255
-0.000380175
-0.000225738
-6.55836e-05
2.10018e-05
4.03256e-05
2.69479e-05
8.95689e-06
-1.59756e-06
-4.28826e-06
-2.9575e-06
-9.72493e-07
1.91739e-07
4.69999e-07
3.0836e-07
8.91624e-08
-3.0336e-08
-5.22848e-08
-3.05133e-08
-6.58402e-09
4.76716e-09
5.72934e-09
2.80776e-09
2.84377e-10
-6.83084e-10
-6.02379e-10
-2.32493e-10
1.8194e-11
8.74519e-11
5.98561e-11
1.81323e-11
-3.63902e-12
-6.78923e-12
-3.05164e-12
-3.29166e-13
-3.46299e-13
-1.62129e-12
-2.47349e-12
-2.26309e-12
-1.26244e-12
-7.57312e-14
8.1035e-13
1.19379e-12
1.1213e-12
7.72044e-13
3.45611e-13
-9.56063e-15
-2.22273e-13
-2.90261e-13
-2.53847e-13
-1.66846e-13
-7.49445e-14
-5.48211e-15
3.27653e-14
4.39404e-14
3.79699e-14
2.49083e-14
1.19001e-14
2.49731e-15
-2.5864e-15
-4.23563e-15
-3.84232e-15
-2.63011e-15
-1.38753e-15
-4.75601e-16
4.07195e-17
2.45523e-16
2.62452e-16
2.00621e-16
9.70723e-17
1
1
0.99998
0.999981
1.00013
1.00033
0.999903
0.998204
0.996314
0.998219
1.00873
1.02779
1.04489
1.03892
0.986088
0.872186
0.702049
0.5
0.300845
0.136483
0.0251626
-0.0320184
-0.0472861
-0.0384617
-0.0216386
-0.00705794
0.0013602
0.00409858
0.0034938
0.00181902
0.00042595
-0.000267441
-0.000397667
-0.000263018
-9.36835e-05
9.53536e-06
4.06398e-05
3.15468e-05
1.2906e-05
1.62694e-07
-4.20216e-06
-3.51595e-06
-1.47456e-06
-3.10581e-08
4.61102e-07
3.78446e-07
1.49319e-07
-5.75347e-09
-5.30802e-08
-3.94913e-08
-1.3425e-08
2.40326e-09
6.17241e-09
3.94283e-09
1.01677e-09
-4.94876e-10
-7.00796e-10
-3.71251e-10
-5.7163e-11
7.36079e-11
7.23945e-11
3.15484e-11
3.11386e-12
-4.26526e-12
-1.04414e-12
2.46769e-12
2.4765e-12
7.6898e-15
-2.60409e-12
-3.86153e-12
-3.53894e-12
-2.21116e-12
-6.45569e-13
5.8515e-13
1.22954e-12
1.31237e-12
1.01808e-12
5.721e-13
1.56878e-13
-1.26031e-13
-2.54208e-13
-2.58925e-13
-1.93393e-13
-1.07457e-13
-3.42088e-14
1.22761e-14
3.22704e-14
3.34717e-14
2.51015e-14
1.44235e-14
5.5997e-15
7.40141e-17
-2.41913e-15
-2.86207e-15
-2.27778e-15
-1.40948e-15
-6.60919e-16
-1.69945e-16
7.3104e-17
1.70241e-16
1
1
0.999995
0.99997
1.00001
1.0002
1.00032
0.999638
0.997741
0.996174
0.999086
1.01073
1.03001
1.04575
1.03727
0.982184
0.867717
0.699155
0.5
0.303542
0.14044
0.0286225
-0.0302183
-0.0473191
-0.0397121
-0.0232206
-0.00828853
0.000751047
0.00402473
0.00370393
0.00207651
0.00059947
-0.000202868
-0.000406618
-0.000298222
-0.000123655
-4.67632e-06
3.91468e-05
3.56146e-05
1.71156e-05
2.37783e-06
-3.81077e-06
-3.98233e-06
-2.0144e-06
-3.22032e-07
4.07864e-07
4.36299e-07
2.15588e-07
2.84321e-08
-4.81356e-08
-4.72116e-08
-2.12947e-08
-1.24228e-09
5.94666e-09
4.9934e-09
1.91707e-09
-1.42332e-10
-7.25826e-10
-5.07763e-10
-1.55932e-10
3.92953e-11
7.43562e-11
4.05897e-11
7.3335e-12
-3.84456e-12
-2.11799e-14
6.24892e-12
8.18379e-12
5.47547e-12
8.40963e-13
-3.05612e-12
-4.91446e-12
-4.74748e-12
-3.29497e-12
-1.44519e-12
1.23035e-13
1.07085e-12
1.36985e-12
1.19045e-12
7.73858e-13
3.32371e-13
-2.33605e-15
-1.85194e-13
-2.34367e-13
-1.98139e-13
-1.26943e-13
-5.73373e-14
-7.71356e-15
1.83481e-14
2.5796e-14
2.2334e-14
1.47342e-14
7.33829e-15
2.0813e-15
-7.71138e-16
-1.78371e-15
-1.72556e-15
-1.228e-15
-7.0529e-16
-1.83309e-16
1
1
1
0.999986
0.999968
1.00005
1.00027
1.00027
0.999331
0.997313
0.996157
1.00006
1.01269
1.03204
1.04639
1.03556
0.978436
0.863517
0.696458
0.5
0.306067
0.144179
0.0319521
-0.0284107
-0.0472471
-0.0408424
-0.0247318
-0.00951485
0.000102559
0.00390383
0.00388439
0.00232765
0.000782063
-0.000125388
-0.000406654
-0.000330536
-0.00015489
-2.1445e-05
3.57346e-05
3.89561e-05
2.14541e-05
5.01315e-06
-3.08783e-06
-4.31774e-06
-2.56818e-06
-6.76182e-07
3.04897e-07
4.7519e-07
2.84298e-07
7.17235e-08
-3.64429e-08
-5.26328e-08
-2.97063e-08
-6.15961e-09
4.87643e-09
5.81043e-09
2.92798e-09
3.83424e-10
-6.47226e-10
-6.17608e-10
-2.65819e-10
-1.14802e-11
6.59944e-11
4.36477e-11
5.66015e-12
-1.05483e-11
-5.78235e-12
5.83921e-12
1.34426e-11
1.38077e-11
8.97299e-12
2.54541e-12
-2.66408e-12
-5.39232e-12
-5.69199e-12
-4.35498e-12
-2.36343e-12
-5.18302e-13
7.28362e-13
1.27241e-12
1.25259e-12
9.12371e-13
4.84441e-13
1.2564e-13
-9.70303e-14
-1.86322e-13
-1.81903e-13
-1.31162e-13
-7.13987e-14
-2.37432e-14
4.95467e-15
1.68202e-14
1.76436e-14
1.32367e-14
7.72099e-15
3.249e-15
4.6862e-16
-8.20288e-16
-1.13318e-15
-8.81764e-16
1
1
1
0.999999
0.999976
0.999976
1.0001
1.00032
1.00018
0.998997
0.996934
0.996254
1.00112
1.01461
1.03388
1.04684
1.0338
0.974837
0.85956
0.693933
0.5
0.308436
0.147722
0.0351593
-0.0266028
-0.0470838
-0.0418621
-0.0261734
-0.0107318
-0.000579061
0.00373921
0.00403491
0.00257022
0.000971575
-3.59692e-05
-0.000397589
-0.000359261
-0.000186791
-4.05324e-05
3.03429e-05
4.13993e-05
2.57856e-05
8.01928e-06
-2.01859e-06
-4.48692e-06
-3.11006e-06
-1.08513e-06
1.48928e-07
4.88783e-07
3.5122e-07
1.22977e-07
-1.73192e-08
-5.47251e-08
-3.80511e-08
-1.22315e-08
2.82627e-09
6.23353e-09
3.96365e-09
1.06863e-09
-4.44885e-10
-6.76706e-10
-3.69526e-10
-6.72638e-11
5.59393e-11
4.72137e-11
1.20116e-12
-2.57569e-11
-2.38167e-11
-6.53441e-12
1.05646e-11
1.9327e-11
1.90409e-11
1.29837e-11
5.19254e-12
-1.33115e-12
-5.15191e-12
-6.18991e-12
-5.20404e-12
-3.24459e-12
-1.2338e-12
2.56012e-13
1.03406e-12
1.19337e-12
9.6451e-13
5.87419e-13
2.35367e-13
-6.4996e-15
-1.25374e-13
-1.49935e-13
-1.21499e-13
-7.54558e-14
-3.38458e-14
-5.80726e-15
8.28751e-15
1.2235e-14
1.06196e-14
7.04309e-15
3.61307e-15
1.26469e-15
-4.01351e-16
1
1
1
1
0.999993
0.999969
0.999995
1.00016
1.00035
1.00004
0.998649
0.99661
0.996454
1.00224
1.01647
1.03556
1.04713
1.03202
0.971377
0.855821
0.691564
0.5
0.310668
0.151087
0.0382517
-0.0248
-0.0468406
-0.0427801
-0.0275469
-0.0119352
-0.00128828
0.0035342
0.00415565
0.00280238
0.00116601
6.43519e-05
-0.000379392
-0.000383812
-0.000218782
-6.16627e-05
2.29581e-05
4.27975e-05
2.99747e-05
1.1335e-05
-5.99485e-07
-4.45928e-06
-3.61336e-06
-1.53758e-06
-6.10895e-08
4.71448e-07
4.11785e-07
1.80451e-07
9.54256e-09
-5.25337e-08
-4.56275e-08
-1.92286e-08
-2.80424e-10
6.10592e-09
4.91397e-09
1.8716e-09
-1.19414e-10
-6.73205e-10
-4.55121e-10
-1.16216e-10
5.84301e-11
6.75209e-11
8.74625e-12
-4.00245e-11
-5.20401e-11
-3.55198e-11
-9.23922e-12
1.23259e-11
2.30739e-11
2.34582e-11
1.71807e-11
8.52249e-12
8.04487e-13
-4.19006e-12
-6.13152e-12
-5.68457e-12
-3.93388e-12
-1.90065e-12
-2.64433e-13
6.99017e-13
1.02842e-12
9.27294e-13
6.28452e-13
3.10755e-13
7.14198e-14
-6.31183e-14
-1.09806e-13
-1.01922e-13
-7.08169e-14
-3.77071e-14
-1.28733e-14
1.41194e-15
7.14181e-15
7.59787e-15
5.8121e-15
2.77057e-15
1
1
1
1
1
0.999985
0.999966
1.00002
1.00022
1.00036
0.999873
0.998298
0.996344
0.996747
1.00341
1.01826
1.03708
1.04729
1.03022
0.968048
0.852278
0.689332
0.5
0.312776
0.154289
0.0412361
-0.0230068
-0.0465277
-0.0436044
-0.0288545
-0.0131217
-0.0020202
0.00329203
0.00424704
0.00302265
0.00136354
0.0001745
-0.000352164
-0.000403711
-0.000250322
-8.45349e-05
1.36085e-05
4.30305e-05
3.38904e-05
1.48899e-05
1.16251e-06
-4.20972e-06
-4.0515e-06
-2.01985e-06
-3.2397e-07
4.18502e-07
4.61295e-07
2.4188e-07
4.40428e-08
-4.52359e-08
-5.16744e-08
-2.68087e-08
-4.44038e-09
5.29845e-09
5.66074e-09
2.72808e-09
3.03606e-10
-6.18699e-10
-5.3121e-10
-1.61969e-10
7.99938e-11
1.22277e-10
5.26882e-11
-2.94873e-11
-7.33892e-11
-7.38889e-11
-4.80357e-11
-1.55325e-11
1.03538e-11
2.42235e-11
2.65574e-11
2.1e-11
1.20372e-11
3.41304e-12
-2.64979e-12
-5.51602e-12
-5.71394e-12
-4.31941e-12
-2.41122e-12
-7.46323e-13
3.27632e-13
7.93169e-13
8.1601e-13
6.08831e-13
3.45096e-13
1.26915e-13
-9.14259e-15
-6.90941e-14
-7.74547e-14
-6.01883e-14
-3.6321e-14
-1.61928e-14
-3.24561e-15
2.96365e-15
5.08703e-15
1
1
1
1
1
0.999999
0.999977
0.999969
1.00006
1.00027
1.00034
0.999674
0.997952
0.996139
0.997122
1.00461
1.01999
1.03846
1.04732
1.02841
0.964841
0.848913
0.687224
0.5
0.314771
0.157342
0.0441189
-0.0212264
-0.0461536
-0.0443425
-0.0300982
-0.0142888
-0.00277045
0.0030158
0.00430973
0.00322985
0.00156249
0.000293389
-0.000316114
-0.000418577
-0.000280908
-0.000108832
2.3583e-06
4.2005e-05
3.74091e-05
1.86075e-05
3.25083e-06
-3.71912e-06
-4.39894e-06
-2.51643e-06
-6.36391e-07
3.26391e-07
4.95121e-07
3.04562e-07
8.56602e-08
-3.21988e-08
-5.54163e-08
-3.45281e-08
-9.55348e-09
3.73968e-09
6.10857e-09
3.5756e-09
7.87819e-10
-5.45557e-10
-6.35355e-10
-2.40643e-10
9.81695e-11
2.10234e-10
1.51803e-10
3.65556e-11
-5.5687e-11
-9.6548e-11
-9.21891e-11
-6.20914e-11
-2.53936e-11
4.86668e-12
2.27089e-11
2.79096e-11
2.38317e-11
1.51563e-11
6.06528e-12
-7.84266e-13
-4.45156e-12
-5.30281e-12
-4.35696e-12
-2.69799e-12
-1.11979e-12
-2.03933e-14
5.31293e-13
6.57521e-13
5.41131e-13
3.40809e-13
1.56535e-13
3.07366e-14
-3.36471e-14
-5.27584e-14
-4.66899e-14
-3.13363e-14
-1.68263e-14
-3.1329e-15
1
1
1
1
1
1
0.999994
0.99997
0.999978
1.0001
1.00032
1.00029
0.999453
0.997619
0.995994
0.997568
1.00583
1.02164
1.03971
1.04725
1.0266
0.961748
0.845711
0.685229
0.5
0.316664
0.160259
0.0469061
-0.0194615
-0.0457261
-0.045001
-0.0312804
-0.0154344
-0.0035352
0.00270848
0.00434457
0.00342307
0.00176139
0.000419943
-0.000271537
-0.000428126
-0.00031008
-0.000134231
-1.0698e-05
3.96535e-05
4.04167e-05
2.24072e-05
5.64045e-06
-2.97449e-06
-4.63191e-06
-3.01057e-06
-9.93054e-07
1.92811e-07
5.08891e-07
3.65465e-07
1.33449e-07
-1.30396e-08
-5.61266e-08
-4.1878e-08
-1.54275e-08
1.43581e-09
6.21956e-09
4.39418e-09
1.32515e-09
-4.76761e-10
-8.18335e-10
-4.21711e-10
4.60465e-11
2.86625e-10
2.92638e-10
1.73319e-10
3.4293e-11
-6.53376e-11
-1.09416e-10
-1.06983e-10
-7.6748e-11
-3.74867e-11
-3.15603e-12
1.88609e-11
2.73158e-11
2.52141e-11
1.73796e-11
8.34306e-12
1.10838e-12
-3.12241e-12
-4.54364e-12
-4.0723e-12
-2.74375e-12
-1.34542e-12
-2.9971e-13
2.83211e-13
4.8188e-13
4.4398e-13
3.06818e-13
1.62408e-13
5.47815e-14
-6.77043e-15
-3.11816e-14
-3.33386e-14
-2.22011e-14
1
1
1
1
1
1
1
0.999988
0.999965
0.999994
1.00015
1.00035
1.00022
0.999214
0.997304
0.995908
0.998077
1.00706
1.02322
1.04084
1.04708
1.0248
0.958764
0.842658
0.683336
0.5
0.318465
0.16305
0.0496032
-0.0177142
-0.0452515
-0.0455862
-0.0324034
-0.016557
-0.00431106
0.00237287
0.00435251
0.00360162
0.00195888
0.000553114
-0.000218795
-0.000432155
-0.000337425
-0.000160408
-2.54409e-05