/*--------------------------------*- C++ -*----------------------------------*\
  =========                 |
  \\      /  F ield         | OpenFOAM: The Open Source CFD Toolbox
   \\    /   O peration     | Website:  https://openfoam.org
    \\  /    A nd           | Version:  7
     \\/     M anipulation  |
\*---------------------------------------------------------------------------*/
FoamFile
{
    version     2.0;
    format      ascii;
    class       volScalarField;
    location    "0.55";
    object      T;
}
// * * * * * * * * * * * * * * * * * * * * * * * * * * * * * * * * * * * * * //

dimensions      [0 0 0 1 0 0 0];

internalField   nonuniform List<scalar> 
10000
(
0.5
0.0669146
-0.0353169
-0.0277115
-0.00789976
0.00112931
0.00220711
0.000963794
3.88563e-05
-0.000206219
-0.000130475
-2.60559e-05
1.76156e-05
1.74837e-05
6.08561e-06
-9.06071e-07
-2.20759e-06
-1.13469e-06
-1.06163e-07
2.47859e-07
1.87024e-07
4.93947e-08
-2.13891e-08
-2.77869e-08
-1.17498e-08
4.14418e-10
3.6607e-09
2.24852e-09
3.90087e-10
-4.06288e-10
-3.79223e-10
-1.2391e-10
3.89378e-11
7.22262e-11
4.5072e-11
1.41256e-11
-2.51971e-12
-8.19938e-12
-9.37391e-12
-8.98455e-12
-7.42966e-12
-4.84158e-12
-1.91761e-12
4.56266e-13
1.76047e-12
2.01482e-12
1.59322e-12
9.36382e-13
3.57263e-13
-1.11226e-14
-1.72027e-13
-1.92516e-13
-1.46387e-13
-8.60651e-14
-3.77843e-14
-8.47908e-15
4.90514e-15
8.37978e-15
7.20161e-15
4.70412e-15
2.48119e-15
1.01002e-15
2.28358e-16
-9.2743e-17
-1.68236e-16
-1.42447e-16
-9.23509e-17
-4.96568e-17
-2.20159e-17
-7.22286e-18
-7.14254e-19
1.39061e-18
1.57723e-18
1.15518e-18
6.87871e-19
3.49812e-19
1.5069e-19
5.06293e-20
8.20433e-21
-5.63976e-21
-7.57812e-21
-5.76001e-21
-3.51406e-21
-1.85034e-21
-8.52256e-22
-3.34585e-22
-1.00139e-22
-1.0281e-23
1.52666e-23
1.68077e-23
1.19267e-23
6.99841e-24
3.60712e-24
1.65611e-24
6.67462e-25
2.21639e-25
4.61484e-26
-9.74815e-27
-1.94925e-26
-1.65874e-26
0.933085
0.5
0.14482
-0.0139075
-0.0411718
-0.0230289
-0.00507433
0.00215701
0.00250723
0.00101071
-9.38734e-08
-0.000255324
-0.000158213
-3.18213e-05
2.20241e-05
2.24005e-05
8.17946e-06
-9.48179e-07
-2.86443e-06
-1.56602e-06
-2.00131e-07
3.13491e-07
2.58846e-07
7.77016e-08
-2.39637e-08
-3.79425e-08
-1.77243e-08
-5.13379e-10
4.83158e-09
3.29206e-09
7.07419e-10
-5.41812e-10
-5.97563e-10
-2.51733e-10
1.19061e-11
1.01432e-10
9.32999e-11
6.26659e-11
3.79243e-11
1.95449e-11
3.83392e-12
-8.72021e-12
-1.56813e-11
-1.62843e-11
-1.2291e-11
-6.62867e-12
-1.73145e-12
1.25564e-12
2.35508e-12
2.19978e-12
1.50405e-12
7.73543e-13
2.46014e-13
-3.91204e-14
-1.40671e-13
-1.39295e-13
-9.85786e-14
-5.51092e-14
-2.3513e-14
-5.56242e-15
2.24884e-15
4.23425e-15
3.65264e-15
2.38881e-15
1.27846e-15
5.49262e-16
1.592e-16
-7.94602e-18
-5.62235e-17
-5.3861e-17
-3.70297e-17
-2.10009e-17
-1.00589e-17
-3.90541e-18
-9.89823e-19
1.23232e-19
3.92883e-19
3.46807e-19
2.28393e-19
1.26719e-19
6.08219e-20
2.47625e-20
7.71469e-21
9.1701e-22
-1.11311e-21
-1.2853e-21
-9.2936e-22
-5.50526e-22
-2.84271e-22
-1.29462e-22
-5.08338e-23
-1.56696e-23
-2.20657e-24
1.73616e-24
2.13358e-24
1.55383e-24
9.24414e-25
4.82871e-25
2.26964e-25
7.83634e-26
1.03532
0.85518
0.5
0.182448
0.00830364
-0.0419281
-0.032441
-0.0120093
3.84408e-05
0.00307766
0.00201936
0.000522644
-0.000189734
-0.000261936
-0.000118925
-6.07707e-06
2.86043e-05
2.02421e-05
5.19525e-06
-2.29056e-06
-2.95623e-06
-1.27805e-06
8.47113e-09
3.71773e-07
2.40894e-07
5.03714e-08
-3.68705e-08
-3.88662e-08
-1.47276e-08
1.76368e-09
5.53754e-09
3.13402e-09
3.8025e-10
-7.73129e-10
-7.37398e-10
-3.56378e-10
-7.50351e-11
4.60371e-11
8.24249e-11
9.20908e-11
8.95596e-11
7.2738e-11
4.4282e-11
1.38588e-11
-8.85489e-12
-1.96171e-11
-1.99925e-11
-1.45279e-11
-7.70225e-12
-2.2838e-12
8.27055e-13
1.95103e-12
1.86654e-12
1.29496e-12
6.93768e-13
2.59959e-13
2.04402e-14
-7.40758e-14
-8.67241e-14
-6.5927e-14
-3.94454e-14
-1.88721e-14
-6.44909e-15
-4.66541e-16
1.60559e-15
1.78992e-15
1.3166e-15
7.78686e-16
3.82538e-16
1.49053e-16
3.50721e-17
-8.88084e-18
-1.8937e-17
-1.60975e-17
-1.04201e-17
-5.66746e-18
-2.62583e-18
-9.90352e-19
-2.43126e-19
3.25635e-20
9.61389e-20
8.3382e-20
5.4332e-20
2.9992e-20
1.44278e-20
5.96816e-21
1.96403e-21
3.42659e-22
-1.70181e-22
-2.44468e-22
-1.86234e-22
-1.13508e-22
-6.00994e-23
-2.82378e-23
-1.16605e-23
-4.00936e-24
-9.20406e-25
1.02377e-25
3.06443e-25
2.75472e-25
1.02771
1.01391
0.817552
0.5
0.206389
0.0268058
-0.0388677
-0.0384381
-0.0184166
-0.00302402
0.00284105
0.00282245
0.00118552
4.2633e-05
-0.000296282
-0.000211922
-6.02234e-05
1.88442e-05
2.95095e-05
1.43558e-05
1.1797e-06
-3.31264e-06
-2.54099e-06
-7.34798e-07
2.46599e-07
3.77203e-07
1.78792e-07
8.51758e-09
-4.67786e-08
-3.35355e-08
-8.33622e-09
4.60779e-09
5.76997e-09
2.62128e-09
4.31299e-11
-8.7191e-10
-8.0027e-10
-4.96928e-10
-2.71172e-10
-1.31775e-10
-2.51146e-11
6.28845e-11
1.16276e-10
1.24363e-10
9.61421e-11
5.27234e-11
1.3729e-11
-1.06398e-11
-1.97585e-11
-1.84437e-11
-1.25415e-11
-6.32466e-12
-1.84631e-12
5.40891e-13
1.34479e-12
1.27014e-12
8.73205e-13
4.71461e-13
1.87744e-13
3.17332e-14
-3.20892e-14
-4.45652e-14
-3.56654e-14
-2.22106e-14
-1.12708e-14
-4.42926e-15
-9.56247e-16
4.07941e-16
7.04377e-16
5.83349e-16
3.72317e-16
1.98201e-16
8.77705e-17
2.9469e-17
3.9494e-18
-4.43634e-18
-5.42433e-18
-4.04347e-18
-2.43089e-18
-1.25015e-18
-5.49901e-19
-1.94676e-19
-4.10776e-20
1.17449e-20
2.18021e-20
1.76283e-20
1.10863e-20
5.97819e-21
2.82913e-21
1.15878e-21
3.81791e-22
7.06538e-23
-2.76877e-23
-4.28856e-23
-3.30355e-23
-2.02345e-23
-1.07755e-23
-5.1139e-24
-2.16861e-24
-5.86093e-25
1.0079
1.04117
0.991696
0.793611
0.5
0.223365
0.042154
-0.0343031
-0.0421139
-0.0239644
-0.00647534
0.00197761
0.00332499
0.00186777
0.000400612
-0.000245072
-0.000285991
-0.000129611
-8.12739e-06
3.15022e-05
2.39228e-05
7.25576e-06
-1.97866e-06
-3.44896e-06
-1.76137e-06
-1.84529e-07
3.91214e-07
3.18126e-07
9.90461e-08
-2.74991e-08
-4.8047e-08
-2.41644e-08
-1.66645e-09
6.62043e-09
5.57471e-09
2.29253e-09
1.56308e-10
-5.78513e-10
-6.56232e-10
-5.97787e-10
-5.26873e-10
-4.07712e-10
-2.31765e-10
-4.79912e-11
8.53818e-11
1.42239e-10
1.33958e-10
9.11826e-11
4.33332e-11
7.73933e-12
-1.09857e-11
-1.61687e-11
-1.37285e-11
-8.73515e-12
-4.1778e-12
-1.16634e-12
3.31377e-13
7.97453e-13
7.35983e-13
4.98802e-13
2.69213e-13
1.10913e-13
2.46186e-14
-1.13865e-14
-1.98161e-14
-1.66637e-14
-1.07152e-14
-5.66541e-15
-2.41781e-15
-7.0671e-16
1.89534e-17
2.28435e-16
2.21e-16
1.52128e-16
8.6377e-17
4.15597e-17
1.63677e-17
4.39338e-18
-2.36939e-19
-1.42412e-18
-1.3074e-18
-8.74438e-19
-4.90492e-19
-2.38306e-19
-9.89337e-20
-3.22673e-20
-5.15646e-21
3.34667e-21
4.45181e-21
3.339e-21
2.01732e-21
1.0581e-21
4.9013e-22
1.97266e-22
6.40358e-23
1.16869e-23
-4.56064e-24
-6.99324e-24
-5.3353e-24
-3.16821e-24
0.998871
1.02303
1.04193
0.973194
0.776635
0.5
0.236308
0.0551561
-0.0291433
-0.0442026
-0.0286476
-0.0100134
0.000663016
0.00351519
0.00249279
0.000838178
-0.000110139
-0.000325109
-0.00020245
-4.98925e-05
2.37007e-05
3.12705e-05
1.49633e-05
1.26015e-06
-3.5213e-06
-2.80622e-06
-8.95874e-07
2.13713e-07
4.12024e-07
2.18311e-07
2.58685e-08
-4.84673e-08
-4.17303e-08
-1.44231e-08
2.85487e-09
7.05162e-09
5.06255e-09
2.43159e-09
9.28588e-10
2.49605e-10
-1.73492e-10
-5.2107e-10
-7.1464e-10
-6.85647e-10
-4.8145e-10
-2.19983e-10
-6.75209e-12
1.10414e-10
1.38468e-10
1.12048e-10
6.7187e-11
2.7479e-11
2.22097e-12
-9.07161e-12
-1.10574e-11
-8.63243e-12
-5.17868e-12
-2.36151e-12
-6.29726e-13
1.81396e-13
4.15893e-13
3.75321e-13
2.5103e-13
1.35318e-13
5.71692e-14
1.48784e-14
-3.04988e-15
-7.7857e-15
-6.93323e-15
-4.59966e-15
-2.51649e-15
-1.13934e-15
-3.90585e-16
-5.46952e-17
5.85535e-17
7.3058e-17
5.49535e-17
3.31754e-17
1.70404e-17
7.41756e-18
2.53749e-18
4.47983e-19
-2.46037e-19
-3.53355e-19
-2.72287e-19
-1.66953e-19
-8.80343e-20
-4.04982e-20
-1.58237e-20
-4.6697e-21
-4.19033e-22
7.68714e-22
8.20911e-22
5.75807e-22
3.34835e-22
1.70888e-22
7.74373e-23
3.05562e-23
9.85407e-24
3.48705e-25
0.997793
1.00507
1.03244
1.03887
0.957846
0.763692
0.5
0.246668
0.0663827
-0.0238073
-0.0451887
-0.0325522
-0.0134733
-0.000959178
0.00341734
0.00301639
0.00131432
9.733e-05
-0.000320961
-0.000268331
-0.000102053
5.401e-06
3.42593e-05
2.29965e-05
6.21787e-06
-2.43302e-06
-3.56989e-06
-1.78345e-06
-1.8218e-07
4.07e-07
3.3827e-07
1.12275e-07
-2.54795e-08
-5.38692e-08
-3.20846e-08
-7.73472e-09
3.71718e-09
5.50045e-09
4.11918e-09
2.89223e-09
2.19784e-09
1.52185e-09
6.61933e-10
-1.7425e-10
-7.10712e-10
-8.49283e-10
-6.85449e-10
-3.96383e-10
-1.30926e-10
3.84177e-11
1.0737e-10
1.07487e-10
7.62451e-11
4.07616e-11
1.42487e-11
-5.4206e-13
-6.16613e-12
-6.51145e-12
-4.73694e-12
-2.70323e-12
-1.1842e-12
-3.04346e-13
8.76593e-14
1.94174e-13
1.72156e-13
1.13985e-13
6.14537e-14
2.65356e-14
7.72236e-15
-3.78862e-16
-2.72758e-15
-2.61381e-15
-1.79391e-15
-1.01299e-15
-4.80808e-16
-1.82814e-16
-4.29031e-17
9.37989e-18
2.10372e-17
1.78174e-17
1.14871e-17
6.25531e-18
2.93303e-18
1.14846e-18
3.24589e-19
9.22722e-21
-7.52877e-20
-7.36375e-20
-5.03183e-20
-2.87371e-20
-1.43413e-20
-6.262e-21
-2.29627e-21
-5.98334e-22
5.56961e-24
1.508e-22
1.38371e-22
9.16744e-23
5.15866e-23
2.30073e-23
0.999036
0.997843
1.01201
1.03844
1.0343
0.944844
0.753332
0.5
0.255249
0.0762288
-0.0184971
-0.0453946
-0.0357829
-0.0167686
-0.00277966
0.00306919
0.00341666
0.00179625
0.000362307
-0.000271062
-0.000319196
-0.000159502
-2.26982e-05
3.14485e-05
3.00042e-05
1.24139e-05
-5.06271e-08
-3.78091e-06
-2.69433e-06
-7.79355e-07
2.62924e-07
4.25062e-07
2.22944e-07
2.86223e-08
-4.96351e-08
-4.76796e-08
-2.32287e-08
-5.91143e-09
5.80616e-10
1.91285e-09
2.46556e-09
3.20549e-09
3.50169e-09
2.91417e-09
1.69e-09
4.09141e-10
-4.75134e-10
-8.28519e-10
-7.71066e-10
-5.16187e-10
-2.43114e-10
-4.65036e-11
5.42478e-11
8.16273e-11
6.91952e-11
4.39689e-11
2.11911e-11
6.24435e-12
-1.19436e-12
-3.57677e-12
-3.38471e-12
-2.32266e-12
-1.27161e-12
-5.39431e-13
-1.3543e-13
3.74597e-14
8.22978e-14
7.21309e-14
4.74518e-14
2.56398e-14
1.13001e-14
3.58352e-15
2.06036e-16
-8.51074e-16
-9.02109e-16
-6.43972e-16
-3.75233e-16
-1.85474e-16
-7.60428e-17
-2.25935e-17
-1.04956e-18
5.11824e-18
5.20626e-18
3.62858e-18
2.09322e-18
1.0442e-18
4.48184e-19
1.55354e-19
3.20551e-20
-9.29192e-21
-1.68425e-20
-1.34782e-20
-8.42362e-21
-4.5325e-21
-2.15242e-21
-8.93697e-22
-3.06328e-22
-6.77076e-23
1.01949e-23
3.13605e-23
0.999961
0.997493
0.999962
1.01842
1.04211
1.02914
0.933617
0.744751
0.5
0.262537
0.0849758
-0.0133115
-0.0450396
-0.0384394
-0.0198576
-0.00471768
0.00251112
0.00368607
0.00225945
0.000669094
-0.000176905
-0.000349474
-0.00021724
-5.89606e-05
2.21133e-05
3.47801e-05
1.9193e-05
3.57612e-06
-3.23573e-06
-3.45812e-06
-1.52539e-06
-4.41513e-08
4.40953e-07
3.38734e-07
1.153e-07
-1.73595e-08
-4.86985e-08
-3.4646e-08
-1.7136e-08
-8.5798e-09
-5.61879e-09
-3.25081e-09
-4.39018e-11
2.89723e-09
4.32068e-09
4.01159e-09
2.63631e-09
1.07592e-09
-7.3725e-11
-6.33141e-10
-7.16868e-10
-5.45064e-10
-3.08386e-10
-1.15709e-10
-1.04002e-12
4.60093e-11
5.12322e-11
3.82686e-11
2.21645e-11
9.71368e-12
2.35434e-12
-9.50433e-13
-1.8223e-12
-1.58364e-12
-1.03586e-12
-5.48248e-13
-2.26972e-13
-5.65115e-14
1.41974e-14
3.20099e-14
2.79244e-14
1.83216e-14
9.94327e-15
4.47002e-15
1.51953e-15
2.05911e-16
-2.32835e-16
-2.86627e-16
-2.14605e-16
-1.29218e-16
-6.6267e-17
-2.88253e-17
-9.86738e-18
-1.75553e-18
9.40807e-19
1.36163e-18
1.05111e-18
6.45231e-19
3.40622e-19
1.56923e-19
6.14492e-20
1.82194e-20
1.70304e-21
-2.93878e-21
-3.16514e-21
-2.22707e-21
-1.29769e-21
-6.63297e-22
-3.02774e-22
-9.49554e-23
1.00021
0.998989
0.996922
1.00302
1.02396
1.0442
1.02381
0.923771
0.737463
0.5
0.268847
0.0928295
-0.00829713
-0.0442768
-0.0406094
-0.0227243
-0.00671456
0.00178129
0.00382595
0.00268654
0.001003
-4.24486e-05
-0.000355818
-0.000270829
-0.00010122
6.15732e-06
3.63693e-05
2.58343e-05
8.24985e-06
-1.8142e-06
-3.90961e-06
-2.34211e-06
-5.21541e-07
3.44741e-07
4.25158e-07
2.20396e-07
4.5404e-08
-2.4312e-08
-2.90409e-08
-1.8347e-08
-1.34019e-08
-1.36168e-08
-1.29822e-08
-8.99623e-09
-3.18123e-09
1.78759e-09
4.34064e-09
4.5031e-09
3.24288e-09
1.63304e-09
3.63652e-10
-3.37919e-10
-5.54872e-10
-4.86507e-10
-3.14955e-10
-1.52237e-10
-4.26009e-11
1.26247e-11
2.99615e-11
2.76395e-11
1.86859e-11
9.99802e-12
4.01091e-12
7.67489e-13
-5.56917e-13
-8.33348e-13
-6.77239e-13
-4.25969e-13
-2.19436e-13
-8.92994e-14
-2.23747e-14
4.76171e-15
1.15219e-14
1.0077e-14
6.61884e-15
3.61536e-15
1.65726e-15
5.97013e-16
1.16562e-16
-5.31711e-17
-8.39584e-17
-6.67675e-17
-4.16669e-17
-2.21296e-17
-1.01118e-17
-3.81502e-18
-9.83254e-19
5.91876e-20
3.10737e-19
2.7902e-19
1.84245e-19
1.0289e-19
5.03377e-20
2.14788e-20
7.59123e-21
1.78466e-21
-1.99786e-22
-6.2112e-22
-5.25734e-22
-3.30647e-22
1.00013
1
0.997981
0.997159
1.00648
1.02865
1.04519
1.0185
0.915024
0.731153
0.5
0.274394
0.0999444
-0.00347339
-0.0432147
-0.0423674
-0.025367
-0.00872811
0.000913719
0.00384278
0.00306586
0.00135109
0.000126998
-0.000336704
-0.000316606
-0.000147096
-1.60179e-05
3.41084e-05
3.16358e-05
1.36731e-05
5.26192e-07
-3.89632e-06
-3.12574e-06
-1.15124e-06
1.00799e-07
4.3445e-07
3.07537e-07
1.19431e-07
2.06435e-08
-1.39593e-09
1.20597e-09
-1.06453e-09
-1.03595e-08
-1.83117e-08
-1.93606e-08
-1.40727e-08
-6.36438e-09
8.22911e-11
3.57687e-09
4.30645e-09
3.38007e-09
1.93922e-09
7.10858e-10
-3.83531e-11
-3.46161e-10
-3.71948e-10
-2.73319e-10
-1.5452e-10
-6.36978e-11
-1.09727e-11
1.16034e-11
1.63222e-11
1.31921e-11
8.22547e-12
4.10944e-12
1.51725e-12
2.13727e-13
-2.72977e-13
-3.47751e-13
-2.67945e-13
-1.63263e-13
-8.23485e-14
-3.31562e-14
-8.4672e-15
1.39273e-15
3.86249e-15
3.41312e-15
2.25252e-15
1.24078e-15
5.79814e-16
2.19479e-16
5.3218e-17
-8.47137e-18
-2.2591e-17
-1.94573e-17
-1.26455e-17
-6.95346e-18
-3.31688e-18
-1.34593e-18
-4.20302e-19
-5.26308e-20
5.73316e-20
6.72956e-20
4.88185e-20
2.89616e-20
1.49775e-20
6.83805e-21
2.69691e-21
8.53985e-22
5.03246e-24
1.00003
1.00026
0.999477
0.997178
0.998022
1.01001
1.03255
1.04539
1.01331
0.90717
0.725606
0.5
0.279329
0.106439
0.00115474
-0.041932
-0.0437761
-0.0277924
-0.0107283
-6.22622e-05
0.00374582
0.00339021
0.00170247
0.000325546
-0.000292007
-0.00035173
-0.000194221
-4.36535e-05
2.76188e-05
3.59666e-05
1.94887e-05
3.76195e-06
-3.27791e-06
-3.73842e-06
-1.86904e-06
-2.94822e-07
3.27e-07
3.28762e-07
1.62743e-07
5.57366e-08
3.1024e-08
3.68931e-08
3.38777e-08
1.5506e-08
-6.52257e-09
-2.05887e-08
-2.31373e-08
-1.74199e-08
-8.90689e-09
-1.76251e-09
2.31591e-09
3.56534e-09
3.0793e-09
1.95404e-09
8.95766e-10
1.91626e-10
-1.50126e-10
-2.41242e-10
-2.05744e-10
-1.32068e-10
-6.6133e-11
-2.28556e-11
-7.6833e-13
7.1638e-12
7.77517e-12
5.68961e-12
3.31775e-12
1.56139e-12
5.33149e-13
4.83975e-14
-1.17838e-13
-1.34116e-13
-9.90376e-14
-5.88255e-14
-2.92028e-14
-1.16996e-14
-3.07565e-15
3.39234e-16
1.21141e-15
1.09094e-15
7.26085e-16
4.04086e-16
1.92465e-16
7.60597e-17
2.13563e-17
1.60822e-19
-5.51849e-18
-5.31694e-18
-3.62492e-18
-2.06601e-18
-1.02494e-18
-4.40802e-19
-1.5546e-19
-3.50693e-20
6.04949e-21
1.44056e-20
1.19692e-20
7.62002e-21
4.17735e-21
1.77323e-21
0.999982
1.00016
1.00019
0.998814
0.996675
0.999337
1.01347
1.03578
1.04504
1.0083
0.900056
0.720671
0.5
0.283765
0.112406
0.00559006
-0.0404869
-0.0448875
-0.0300111
-0.0126941
-0.0011218
0.00354557
0.00365566
0.0020482
0.000547233
-0.000222625
-0.000374152
-0.000240386
-7.57673e-05
1.67629e-05
3.82785e-05
2.52925e-05
7.7964e-06
-1.94189e-06
-4.01273e-06
-2.54822e-06
-7.8094e-07
1.11168e-07
2.59794e-07
1.34315e-07
3.487e-08
2.65279e-08
5.85142e-08
7.59535e-08
6.20913e-08
2.97332e-08
-1.459e-09
-1.96909e-08
-2.37012e-08
-1.85251e-08
-1.03127e-08
-3.27638e-09
9.47436e-10
2.54912e-09
2.48816e-09
1.7303e-09
9.12871e-10
3.19917e-10
-4.21158e-12
-1.26129e-10
-1.34537e-10
-9.8183e-11
-5.63947e-11
-2.51705e-11
-7.00092e-12
1.22414e-12
3.60977e-12
3.3286e-12
2.25317e-12
1.24212e-12
5.54845e-13
1.761e-13
7.32178e-15
-4.60631e-14
-4.82864e-14
-3.44699e-14
-2.00653e-14
-9.84786e-15
-3.94475e-15
-1.07498e-15
5.82084e-17
3.56464e-16
3.30466e-16
2.22662e-16
1.25424e-16
6.08841e-17
2.49925e-17
7.81078e-18
8.9147e-19
-1.18851e-18
-1.36022e-18
-9.83592e-19
-5.8259e-19
-3.00005e-19
-1.35497e-19
-5.2097e-20
-1.50903e-20
-1.21689e-21
2.52588e-21
2.91163e-21
0.999983
1.00003
1.00026
0.999957
0.998132
0.996485
1.00096
1.01677
1.03844
1.04428
1.00347
0.893561
0.716235
0.5
0.287787
0.11792
0.00983944
-0.0389223
-0.0457452
-0.0320359
-0.0146108
-0.00224409
0.00325288
0.00386073
0.00238115
0.00078634
-0.000130163
-0.000382521
-0.000283627
-0.000111258
1.5916e-06
3.80928e-05
3.06179e-05
1.24196e-05
1.40889e-07
-3.80006e-06
-3.02271e-06
-1.22386e-06
-1.24895e-07
1.44416e-07
3.87373e-08
-6.8015e-08
-5.89772e-08
1.83657e-08
8.58865e-08
1.04991e-07
8.12561e-08
4.01119e-08
4.19588e-09
-1.61388e-08
-2.14432e-08
-1.75159e-08
-1.04429e-08
-4.16305e-09
-2.02054e-10
1.52926e-09
1.79102e-09
1.37062e-09
8.04835e-10
3.52984e-10
8.059e-11
-4.29048e-11
-7.47766e-11
-6.41236e-11
-4.16149e-11
-2.17078e-11
-8.63508e-12
-1.76658e-12
9.93575e-13
1.58688e-12
1.30501e-12
8.29628e-13
4.3616e-13
1.8619e-13
5.52475e-14
-3.07428e-16
-1.65932e-14
-1.63606e-14
-1.13707e-14
-6.5165e-15
-3.17412e-15
-1.27632e-15
-3.62047e-16
-3.22369e-19
9.84939e-17
9.51812e-17
6.51921e-17
3.72369e-17
1.84224e-17
7.82401e-18
2.65492e-18
4.99595e-19
-2.08034e-19
-3.23975e-19
-2.52806e-19
-1.5632e-19
-8.35264e-20
-3.93786e-20
-1.63192e-20
-3.83906e-21
0.999994
0.999978
1.00012
1.0003
0.999599
0.997507
0.996583
1.00278
1.01986
1.04061
1.04321
0.998845
0.887594
0.712213
0.5
0.291459
0.123039
0.0139117
-0.0372711
-0.0463857
-0.0338802
-0.0164687
-0.00341188
0.00287832
0.0040057
0.00269581
0.00103758
-1.66683e-05
-0.000376064
-0.000322231
-0.000148951
-1.76721e-05
3.50093e-05
3.49306e-05
1.72633e-05
2.83238e-06
-3.06962e-06
-3.17383e-06
-1.47284e-06
-2.30996e-07
1.09752e-07
-3.69016e-08
-2.13921e-07
-2.3049e-07
-1.18241e-07
1.7548e-08
1.02124e-07
1.18817e-07
8.9569e-08
4.56813e-08
9.30388e-09
-1.11858e-08
-1.73864e-08
-1.4993e-08
-9.50016e-09
-4.3646e-09
-9.59306e-10
6.93866e-10
1.14109e-09
9.79465e-10
6.32374e-10
3.19502e-10
1.12851e-10
6.3948e-12
-3.26577e-11
-3.64987e-11
-2.70855e-11
-1.59921e-11
-7.64679e-12
-2.6941e-12
-3.18992e-13
5.22826e-13
6.29354e-13
4.75074e-13
2.86867e-13
1.44877e-13
5.94783e-14
1.66169e-14
-8.11196e-16
-5.57527e-15
-5.25097e-15
-3.57415e-15
-2.02456e-15
-9.81939e-16
-3.97609e-16
-1.17625e-16
-6.20766e-18
2.55126e-17
2.61273e-17
1.8276e-17
1.0606e-17
5.3485e-18
2.34282e-18
8.48956e-19
2.06034e-19
-2.03917e-20
-7.09354e-20
-6.14912e-20
-4.00093e-20
-2.0493e-20
1
0.999978
1.00001
1.00021
1.00025
0.999162
0.996984
0.996931
1.00472
1.02272
1.04237
1.04193
0.99441
0.88208
0.708541
0.5
0.294834
0.127814
0.0178165
-0.035558
-0.0468395
-0.0355575
-0.0182615
-0.00461091
0.00243193
0.00409201
0.00298798
0.00129618
0.00011557
-0.000354445
-0.000354688
-0.00018757
-4.05714e-05
2.87968e-05
3.77064e-05
2.18233e-05
5.78172e-06
-2.00896e-06
-3.05614e-06
-1.47989e-06
-8.54522e-08
3.1612e-07
6.64273e-08
-2.7929e-07
-4.17977e-07
-3.33812e-07
-1.49212e-07
1.55633e-08
1.03709e-07
1.17536e-07
8.78103e-08
4.63634e-08
1.2876e-08
-6.16673e-09
-1.27021e-08
-1.17392e-08
-7.88635e-09
-4.01331e-09
-1.30704e-09
1.21729e-10
6.27382e-10
6.32078e-10
4.49392e-10
2.52913e-10
1.10009e-10
2.84708e-11
-7.58621e-12
-1.7434e-11
-1.5564e-11
-1.0379e-11
-5.65843e-12
-2.4943e-12
-7.67964e-13
-7.57008e-15
2.26615e-13
2.29829e-13
1.62294e-13
9.39076e-14
4.58447e-14
1.82101e-14
4.83157e-15
-4.14718e-16
-1.76275e-15
-1.60502e-15
-1.07535e-15
-6.04108e-16
-2.92568e-16
-1.19593e-16
-3.69007e-17
-3.70435e-18
6.16114e-18
6.84525e-18
4.917e-18
2.9053e-18
1.49389e-18
6.7328e-19
2.57532e-19
7.3242e-20
5.1533e-21
-1.81948e-20
1
0.999992
0.999971
1.00006
1.00029
1.00011
0.998686
0.996583
0.997489
1.00671
1.02537
1.04378
1.04049
0.990161
0.876961
0.705166
0.5
0.297951
0.132283
0.0215636
-0.0338022
-0.0471324
-0.0370806
-0.0199854
-0.00582943
0.00192305
0.00412197
0.0032546
0.00155789
0.000264134
-0.000317679
-0.00037965
-0.000225685
-6.62994e-05
1.95751e-05
3.86337e-05
2.5625e-05
8.51061e-06
-1.02982e-06
-2.97902e-06
-1.42566e-06
2.6988e-07
8.41872e-07
5.01707e-07
-9.261e-08
-4.78012e-07
-5.37673e-07
-3.78201e-07
-1.59238e-07
9.78843e-09
9.28948e-08
1.04811e-07
7.85345e-08
4.29618e-08
1.44619e-08
-2.04172e-09
-8.33457e-09
-8.45585e-09
-6.03341e-09
-3.33138e-09
-1.33172e-09
-1.97466e-10
2.75462e-10
3.65347e-10
2.90678e-10
1.7997e-10
8.9572e-11
3.29474e-11
4.51427e-12
-6.10996e-12
-7.74333e-12
-5.98518e-12
-3.66833e-12
-1.86565e-12
-7.60562e-13
-1.99928e-13
2.75956e-14
8.68763e-14
7.83624e-14
5.24641e-14
2.92975e-14
1.39017e-14
5.37369e-15
1.36803e-15
-1.56073e-16
-5.27957e-16
-4.69295e-16
-3.10853e-16
-1.73706e-16
-8.41995e-17
-3.4809e-17
-1.11904e-17
-1.60359e-18
1.36997e-18
1.71247e-18
1.27175e-18
7.66998e-19
4.02268e-19
1.87442e-19
5.91783e-20
1
1
0.99998
0.999981
1.00013
1.00033
0.999903
0.998204
0.996314
0.998219
1.00873
1.02779
1.04489
1.03892
0.986088
0.872186
0.702049
0.5
0.300845
0.136483
0.0251626
-0.0320185
-0.0472861
-0.0384617
-0.0216385
-0.00705784
0.00136019
0.00409836
0.00349345
0.0018189
0.000426445
-0.000266188
-0.000396018
-0.000261766
-9.36481e-05
7.9957e-06
3.7889e-05
2.85258e-05
1.06737e-05
-5.97597e-07
-3.44322e-06
-1.75209e-06
5.31166e-07
1.55672e-06
1.29483e-06
4.72986e-07
-2.48749e-07
-5.85909e-07
-5.71561e-07
-3.74733e-07
-1.54567e-07
1.47334e-09
7.4754e-08
8.57132e-08
6.50044e-08
3.68453e-08
1.41907e-08
7.61025e-10
-4.83212e-09
-5.61337e-09
-4.28102e-09
-2.53753e-09
-1.15862e-09
-3.23453e-10
6.73692e-11
1.84403e-10
1.71001e-10
1.16638e-10
6.44624e-11
2.84578e-11
8.44337e-12
-4.42005e-13
-3.1214e-12
-3.03937e-12
-2.11771e-12
-1.21081e-12
-5.78771e-13
-2.1848e-13
-4.71583e-14
1.69548e-14
3.0443e-14
2.52005e-14
1.61572e-14
8.75924e-15
4.05948e-15
1.53561e-15
3.79494e-16
-4.98497e-17
-1.50563e-16
-1.31747e-16
-8.66106e-17
-4.82673e-17
-2.34637e-17
-9.82339e-18
-3.2843e-18
-5.96257e-19
2.72748e-19
4.08859e-19
3.16344e-19
1.8605e-19
1
1
0.999995
0.99997
1.00001
1.0002
1.00032
0.999638
0.997741
0.996174
0.999086
1.01073
1.03001
1.04575
1.03727
0.982184
0.867717
0.699155
0.5
0.303542
0.14044
0.0286225
-0.0302183
-0.0473191
-0.0397121
-0.0232204
-0.00828825
0.000751113
0.00402428
0.00370298
0.00207565
0.000599619
-0.00020102
-0.000403243
-0.000294483
-0.000121199
-4.77209e-06
3.63076e-05
3.10195e-05
1.24184e-05
-8.96245e-07
-4.88992e-06
-3.0236e-06
1.6225e-07
2.06857e-06
2.24591e-06
1.3915e-06
3.58491e-07
-3.43337e-07
-6.00968e-07
-5.38247e-07
-3.38665e-07
-1.40176e-07
-6.81979e-09
5.45474e-08
6.49568e-08
5.02527e-08
2.95102e-08
1.25772e-08
2.26548e-09
-2.3623e-09
-3.42518e-09
-2.82744e-09
-1.79164e-09
-9.02617e-10
-3.28543e-10
-3.46407e-11
7.55511e-11
9.05762e-11
6.91745e-11
4.20133e-11
2.09893e-11
8.15997e-12
1.73745e-12
-7.6623e-13
-1.30864e-12
-1.08707e-12
-6.99197e-13
-3.76896e-13
-1.7029e-13
-5.95141e-14
-9.84991e-15
7.27042e-15
9.93676e-15
7.70327e-15
4.76662e-15
2.52121e-15
1.14625e-15
4.26601e-16
1.03619e-16
-1.41229e-17
-4.10461e-17
-3.56207e-17
-2.33223e-17
-1.29921e-17
-6.3445e-18
-2.69246e-18
-9.33515e-19
-2.06863e-19
9.26743e-20
1
1
1
0.999986
0.999968
1.00005
1.00027
1.00027
0.999331
0.997313
0.996157
1.00006
1.01269
1.03204
1.04639
1.03556
0.978436
0.863517
0.696458
0.5
0.306067
0.144179
0.0319521
-0.0284108
-0.0472473
-0.0408424
-0.0247314
-0.00951418
0.000102932
0.00390308
0.0038822
0.00232481
0.000780351
-0.00012414
-0.0004018
-0.000323281
-0.000147868
-1.74246e-05
3.52301e-05
3.43184e-05
1.46479e-05
-1.46919e-06
-7.33498e-06
-5.62606e-06
-1.40873e-06
1.80962e-06
2.92486e-06
2.42297e-06
1.27617e-06
2.38254e-07
-3.66077e-07
-5.46532e-07
-4.6353e-07
-2.84993e-07
-1.20145e-07
-1.30141e-08
3.61522e-08
4.59131e-08
3.65101e-08
2.22159e-08
1.026e-08
2.76043e-09
-8.28997e-10
-1.90278e-09
-1.73985e-09
-1.18002e-09
-6.44302e-10
-2.74376e-10
-7.00137e-11
1.83159e-11
4.19935e-11
3.7443e-11
2.50704e-11
1.38383e-11
6.28192e-12
2.10819e-12
2.15346e-13
-4.19243e-13
-4.84977e-13
-3.60963e-13
-2.17689e-13
-1.11513e-13
-4.78415e-14
-1.54599e-14
-1.70954e-15
2.64566e-15
3.05851e-15
2.25199e-15
1.35326e-15
7.01357e-16
3.14042e-16
1.15572e-16
2.79348e-17
-3.59789e-18
-1.07294e-17
-9.29907e-18
-6.08351e-18
-3.39399e-18
-1.67743e-18
-5.89515e-19
1
1
1
0.999999
0.999976
0.999976
1.0001
1.00032
1.00018
0.998997
0.996934
0.996254
1.00112
1.01461
1.03388
1.04684
1.0338
0.974837
0.85956
0.693933
0.5
0.308436
0.147722
0.0351594
-0.0266031
-0.0470843
-0.0418623
-0.0261727
-0.0107302
-0.000577648
0.00373861
0.00403099
0.00256359
0.000965096
-3.8484e-05
-0.000393559
-0.000349029
-0.000173693
-2.92901e-05
3.59093e-05
4.00182e-05
1.89598e-05
-1.0558e-06
-1.00666e-05
-9.42127e-06
-4.48058e-06
2.59405e-07
2.79424e-06
3.14861e-06
2.25579e-06
1.06605e-06
1.46866e-07
-3.33836e-07
-4.536e-07
-3.71544e-07
-2.25955e-07
-9.78672e-08
-1.62208e-08
2.16e-08
3.03766e-08
2.50375e-08
1.57978e-08
7.79776e-09
2.61534e-09
-9.4883e-12
-9.4001e-10
-9.95175e-10
-7.27548e-10
-4.26845e-10
-2.02896e-10
-7.0251e-11
-6.67079e-12
1.57188e-11
1.82597e-11
1.37349e-11
8.31914e-12
4.22256e-12
1.74081e-12
4.83916e-13
-3.21781e-14
-1.74532e-13
-1.64375e-13
-1.12706e-13
-6.44373e-14
-3.15661e-14
-1.29085e-14
-3.84916e-15
-1.91896e-16
8.68392e-16
8.95473e-16
6.32742e-16
3.71144e-16
1.8918e-16
8.37221e-17
3.06091e-17
7.44798e-18
-8.19502e-19
-2.69635e-18
-2.3453e-18
-1.48452e-18
1
1
1
1
0.999993
0.999969
0.999995
1.00016
1.00035
1.00004
0.998649
0.99661
0.996454
1.00224
1.01647
1.03556
1.04713
1.03202
0.971377
0.855821
0.691564
0.5
0.310668
0.151087
0.0382518
-0.0248006
-0.0468418
-0.0427809
-0.0275459
-0.0119317
-0.00128399
0.00353561
0.00415067
0.00279044
0.00115082
5.25634e-05
-0.000381659
-0.000374343
-0.000200533
-4.12296e-05
3.85947e-05
4.93363e-05
2.7143e-05
2.19602e-06
-1.16055e-05
-1.35368e-05
-8.7937e-06
-2.7771e-06
1.42641e-06
3.10625e-06
2.9269e-06
1.90926e-06
8.36801e-07
8.9573e-08
-2.71858e-07
-3.49414e-07
-2.80255e-07
-1.70044e-07
-7.60129e-08
-1.66292e-08
1.13558e-08
1.88311e-08
1.62545e-08
1.06518e-08
5.56818e-09
2.15708e-09
3.3889e-10
-3.88402e-10
-5.25267e-10
-4.20325e-10
-2.64428e-10
-1.37052e-10
-5.62282e-11
-1.41174e-11
3.2749e-12
7.75021e-12
6.87261e-12
4.59765e-12
2.565e-12
1.20509e-12
4.48431e-13
9.45857e-14
-3.60535e-14
-6.29566e-14
-5.1953e-14
-3.34015e-14
-1.82541e-14
-8.59585e-15
-3.36213e-15
-9.22862e-16
1.63811e-17
2.6445e-16
2.51008e-16
1.71563e-16
9.86498e-17
4.9615e-17
2.17713e-17
7.93628e-18
2.01028e-18
-5.53247e-19
1
1
1
1
1
0.999985
0.999966
1.00002
1.00022
1.00036
0.999873
0.998298
0.996344
0.996747
1.00341
1.01826
1.03708
1.04729
1.03022
0.968048
0.852278
0.689332
0.5
0.312776
0.15429
0.0412365
-0.0230078
-0.0465304
-0.0436068
-0.0288532
-0.0131147
-0.00200943
0.0033001
0.00424476
0.0030062
0.00133635
0.000146444
-0.000369567
-0.00040315
-0.000232181
-5.62231e-05
4.16562e-05
6.21561e-05
4.03323e-05
1.01181e-05
-1.00363e-05
-1.64407e-05
-1.34206e-05
-6.96407e-06
-1.27344e-06
1.97767e-06
2.92445e-06
2.46594e-06
1.5075e-06
6.2813e-07
5.83649e-08
-2.02175e-07
-2.52519e-07
-2.00412e-07
-1.22085e-07
-5.64312e-08
-1.50402e-08
4.90137e-09
1.09171e-08
1.0007e-08
6.82975e-09
3.75884e-09
1.61613e-09
4.18547e-10
-1.06707e-10
-2.51561e-10
-2.27083e-10
-1.538e-10
-8.59203e-11
-3.95505e-11
-1.35495e-11
-1.55026e-12
2.5836e-12
3.08633e-12
2.3362e-12
1.42925e-12
7.42748e-13
3.23993e-13
1.07416e-13
1.36176e-14
-1.70635e-14
-2.06449e-14
-1.55077e-14
-9.4634e-15
-4.97574e-15
-2.26235e-15
-8.49134e-16
-2.14055e-16
1.99103e-17
7.59134e-17
6.77017e-17
4.50425e-17
2.54769e-17
1.27584e-17
4.55333e-18
1
1
1
1
1
0.999999
0.999977
0.999969
1.00006
1.00027
1.00034
0.999674
0.997952
0.996139
0.997122
1.00461
1.01999
1.03846
1.04732
1.02841
0.964841
0.848913
0.687224
0.5
0.314772
0.157344
0.0441203
-0.0212282
-0.0461594
-0.0443487
-0.0300981
-0.0142767
-0.00274769
0.00303923
0.00431936
0.00321516
0.0015239
0.000243261
-0.000359301
-0.000439292
-0.000273555
-7.91881e-05
4.12167e-05
7.62925e-05
5.81245e-05
2.36905e-05
-3.64877e-06
-1.63349e-05
-1.69221e-05
-1.14118e-05
-4.94111e-06
-2.51211e-07
2.03443e-06
2.46938e-06
1.93007e-06
1.12712e-06
4.55549e-07
4.2667e-08
-1.39044e-07
-1.7246e-07
-1.36588e-07
-8.39354e-08
-4.01295e-08
-1.23986e-08
1.29928e-09
5.88186e-09
5.84479e-09
4.17303e-09
2.4098e-09
1.12354e-09
3.71184e-10
1.57715e-11
-1.05059e-10
-1.13992e-10
-8.40884e-11
-5.04328e-11
-2.5372e-11
-1.02957e-11
-2.70567e-12
3.7505e-13
1.18774e-12
1.0818e-12
7.34113e-13
4.17659e-13
2.03657e-13
8.25023e-14
2.3816e-14
2.80123e-16
-6.36097e-15
-6.30537e-15
-4.41107e-15
-2.57795e-15
-1.31097e-15
-5.77808e-16
-2.08796e-16
-4.82622e-17
8.49818e-18
2.07578e-17
1.7626e-17
1.09886e-17
1
1
1
1
1
1
0.999994
0.99997
0.999978
1.0001
1.00032
1.00029
0.999453
0.997619
0.995994
0.997568
1.00583
1.02164
1.03971
1.04725
1.0266
0.961749
0.845711
0.685228
0.499999
0.316666
0.160263
0.0469097
-0.0194644
-0.0457378
-0.0450162
-0.031286
-0.0154179
-0.00349436
0.00276005
0.00438253
0.00342515
0.00172015
0.000347529
-0.000349309
-0.000484417
-0.000328945
-0.000115823
3.16408e-05
8.73849e-05
7.80527e-05
4.23114e-05
8.32671e-06
-1.17544e-05
-1.77447e-05
-1.48725e-05
-8.79036e-06
-3.22901e-06
2.96616e-07
1.79106e-06
1.92357e-06
1.42417e-06
8.05609e-07
3.21097e-07
3.42934e-08
-8.90328e-08
-1.11868e-07
-8.90638e-08
-5.54193e-08
-2.73906e-08
-9.49086e-09
-4.11944e-10
2.90376e-09
3.23489e-09
2.43285e-09
1.47223e-09
7.33825e-10
2.81937e-10
5.46222e-11
-3.40072e-11
-5.24049e-11
-4.31341e-11
-2.78423e-11
-1.51132e-11
-6.87331e-12
-2.40117e-12
-3.70709e-13
3.3664e-13
4.45241e-13
3.46428e-13
2.16427e-13
1.15768e-13
5.32201e-14
1.99768e-14
4.823e-15
-7.87349e-16
-2.08881e-15
-1.81985e-15
-1.20372e-15
-6.78379e-16
-3.35139e-16
-1.43708e-16
-5.01372e-17
-1.09436e-17
5.38e-18
1
1
1
1
1
1
1
0.999988
0.999965
0.999994
1.00015
1.00035
1.00022
0.999214
0.997304
0.995908
0.998077
1.00706
1.02322
1.04084
1.04708
1.0248
0.958765
0.842657
0.683333
0.499998
0.318469
0.163059
0.0496118
-0.0177181
-0.0452745
-0.0456204
-0.0324262
-0.0165428
-0.00424919
0.00246709
0.00444213
0.0036463
0.00193595
0.000468977
-0.000332799
-0.000535815
-0.000399773
-0.000170673
6.91403e-06
8.96254e-05
9.57172e-05