/*--------------------------------*- C++ -*----------------------------------*\
  =========                 |
  \\      /  F ield         | OpenFOAM: The Open Source CFD Toolbox
   \\    /   O peration     | Website:  https://openfoam.org
    \\  /    A nd           | Version:  7
     \\/     M anipulation  |
\*---------------------------------------------------------------------------*/
FoamFile
{
    version     2.0;
    format      ascii;
    class       volScalarField;
    location    "0.5";
    object      T;
}
// * * * * * * * * * * * * * * * * * * * * * * * * * * * * * * * * * * * * * //

dimensions      [0 0 0 1 0 0 0];

internalField   nonuniform List<scalar> 
5936
(
0.509388
0.913124
0.999003
0.982342
1.00586
1.01594
1.00206
1.00701
1.00021
1.00101
0.999887
0.999757
0.99995
0.999843
0.999998
0.999979
1
1
0.999999
0.999998
0.999999
0.999996
0.999999
0.999998
1
1
1
1
1
1
1
1
1
1
1
1
1
1
1
1
1
1
1
1
1
1
1
1
1
1
1
1
1
1
1
1
1
1
1
1
1
1
1
1
1
1
1
1
1
1
1
1
1
1
1
1
1
1
1
1
1
1
1
1
1
1
1
1
1
1
1
1
1
1
1
1
1
1
1
0.116255
-0.00308433
-0.000220627
4.08802e-05
-3.12017e-07
4.17884e-07
-4.29986e-09
-1.38393e-08
2.78211e-09
2.69838e-11
-8.43816e-11
5.23205e-12
2.02633e-12
9.67499e-14
-1.44349e-14
-2.63586e-15
-5.70988e-17
1.4196e-17
1.31919e-18
3.69521e-20
-2.93463e-21
-3.12386e-22
-9.96796e-24
2.05582e-25
-5.32431e-42
8.69574e-26
5.58492e-25
1.07867e-22
1.03102e-21
-2.50181e-20
3.46052e-19
-2.06133e-18
-4.03328e-17
1.03096e-15
4.95962e-15
-6.27442e-14
7.70633e-14
2.7813e-12
-2.72049e-11
-2.21062e-11
6.0206e-10
-5.23639e-10
1.26645e-09
-1.39535e-08
1.5213e-08
4.7272e-08
-2.78777e-08
2.89945e-07
4.58909e-07
7.28487e-07
1
1
1
1
1
1
0.999998
0.999999
1
1
1
0.999999
1.00001
1.00001
0.999961
0.999985
0.999951
0.99994
1.00021
1.00011
1.00017
1.0002
0.999596
0.999855
0.998973
0.999215
0.999631
0.999288
1.00265
1.0014
1.0062
1.0049
1.00521
1.00581
0.993483
0.998042
0.963404
0.97343
0.911131
0.927964
0.832573
0.857431
0.733706
0.763969
0.622215
0.656421
0.507138
0.541432
0.403098
0.433613
0.307121
0.335114
0.22647
0.249648
0.162591
0.180567
0.112603
0.126586
0.0761154
0.0862529
0.0502876
0.0572537
0.0323015
0.0371121
0.0201284
0.0233521
0.0123519
0.0144033
0.00728764
0.00859016
0.00429163
0.00506504
0.00246933
0.00293878
0.0013725
0.00164971
0.000766959
0.000921925
0.000414125
0.00050359
0.000218682
0.000267444
0.000117294
0.000143165
6.053e-05
7.48496e-05
3.15336e-05
3.91816e-05
1.57371e-05
2.00485e-05
8.11198e-06
1.05007e-05
4.25647e-06
5.57693e-06
1.80677e-06
9.7775e-07
2.44075e-06
7.70609e-26
5.7338e-07
0.0134562
-0.00159039
6.86165e-05
7.1604e-06
1.02307e-07
1.83645e-07
-3.60133e-08
6.82678e-10
1.11375e-09
-1.69625e-10
-1.48132e-11
5.09439e-12
5.41281e-13
-3.3475e-15
-7.92444e-15
-5.89856e-16
2.318e-17
4.81276e-18
2.79709e-19
-1.57979e-21
-1.13553e-21
-6.54492e-23
-7.07709e-25
-0.000922384
1.2533e-25
8.02539e-07
-3.75926e-25
-2.26744e-23
-1.71976e-22
-4.425e-22
7.17476e-21
-6.33024e-19
1.7809e-17
-1.38901e-16
-2.65357e-15
3.11746e-15
1.55174e-13
-1.41112e-12
3.89112e-12
5.10371e-11
-1.99665e-10
-4.24531e-10
-4.09191e-10
9.85574e-09
-2.72788e-08
4.19553e-08
-4.27299e-08
1.16389e-07
4.67214e-07
0.000131133
0.0664675
1.9863e-06
0.457247
0.000144097
3.03971e-05
6.57336e-07
5.37238e-07
-9.94506e-08
4.95582e-10
3.379e-09
-4.89935e-10
-5.37174e-11
1.66355e-11
2.06674e-12
-2.8813e-16
-2.69541e-14
-2.29995e-15
5.16544e-17
1.80105e-17
1.14454e-18
3.32735e-21
-4.07516e-21
-2.70977e-22
-4.37714e-24
3.42857e-25
-1.62936e-23
-3.41467e-23
1.58548e-22
3.61529e-20
-1.54815e-19
2.47745e-17
-8.60819e-17
-1.97397e-15
1.02098e-14
2.09644e-13
-1.45214e-12
1.76056e-12
4.91405e-11
-1.9045e-10
-4.57609e-10
-4.12034e-10
1.01439e-08
-3.1504e-08
5.40071e-08
-4.68929e-08
1.6758e-07
6.14274e-07
-3.64941e-25
1.15186e-06
4.4728e-09
-4.17112e-08
7.25697e-09
1.7459e-10
-2.71229e-10
1.33624e-11
7.33107e-12
3.7664e-13
-4.53252e-14
-9.5849e-15
-2.90643e-16
5.09213e-17
5.02909e-18
1.72335e-19
-9.19737e-21
-1.20338e-21
-4.492e-23
4.12482e-25
9.11586e-23
5.61838e-22
-3.17549e-20
2.69317e-19
-4.10248e-18
-6.47273e-17
9.04649e-16
2.5716e-15
-8.41164e-14
-1.54005e-14
3.56374e-12
-2.47481e-11
-2.74222e-11
6.34593e-10
-6.54551e-10
2.15951e-09
-1.74993e-08
1.91511e-08
5.47475e-08
-2.16317e-08
4.01086e-07
6.34963e-07
-0.0055644
-0.00532447
-4.93171e-25
0.596807
-0.00118086
0.957427
1.0026
0.985737
1.00456
1.0082
1.00136
1.00401
0.999967
1.00053
0.999869
0.999794
0.999989
0.999958
1.00002
1.00005
1.00001
1.00003
1
1.00001
0.999998
0.999998
0.999999
0.999998
1
1
1
1
1
1
1
1
1
1
1
1
1
1
1
1
1
1
1
1
1
1
1
1
1
1
1
1
1
1
1
1
1
1
1
1
1
1
1
1
1
1
1
1
1
1
1
1
1
1
1
1
1
1
1
1
1
1
1
1
1
1
1
1
1
1
1
1
1
1
1
-2.19141e-24
0.00151943
6.24046e-05
0.260823
-5.70177e-06
5.06032e-08
2.89686e-07
-5.96259e-08
1.08963e-09
1.52722e-09
-2.52453e-10
-3.81494e-11
3.35326e-12
6.98148e-13
3.98844e-14
-4.34668e-15
-7.611e-16
-2.46052e-17
1.82353e-18
2.60998e-19
9.50023e-21
-2.47537e-22
-4.09705e-23
-1.39759e-24
1.33082e-22
-0.00316853
-0.00458952
-0.0032785
2.74195e-26
1.32769e-06
2.24736e-06
-3.69158e-06
-8.98709e-06
-1.32552e-06
0.532986
3.66972e-22
-4.46007e-20
3.33361e-19
-4.9095e-18
-1.2367e-16
1.08327e-15
4.20112e-15
-1.18849e-13
-2.82454e-13
6.23589e-12
-3.1927e-11
-8.24071e-11
9.87168e-10
-8.81926e-10
4.9062e-09
-3.64018e-08
5.0238e-08
6.32191e-08
1.86159e-08
7.34952e-07
9.26248e-07
1.5949e-06
0.0517236
0.189634
0.0225263
-9.55433e-05
-0.000690286
4.39838e-05
1.58859e-05
-6.93728e-06
1
1
1
1
0.999998
0.999999
1
1
1
1
1.00001
1.00001
0.999967
0.999985
0.999964
0.999932
1.00018
1.0001
1.00011
1.00022
0.999651
0.99991
0.99917
0.999242
0.99975
0.999088
1.00249
1.00112
1.0056
1.00483
1.0046
1.00662
0.993296
1.00069
0.963432
0.980068
0.910553
0.935616
0.833541
0.86835
0.735093
0.776475
0.626045
0.67031
0.512075
0.5572
0.405739
0.445207
0.310902
0.34549
0.231052
0.260128
0.165348
0.188542
0.11475
0.131794
0.0783009
0.0906216
0.0512549
0.0601629
0.0327891
0.0387135
0.0207385
0.024679
0.0126371
0.0151473
0.00750283
0.00909437
0.00441366
0.00534945
0.00254435
0.00310601
0.00143299
0.00177123
0.00079857
0.00098674
0.000433819
0.000539668
0.000231874
0.000291122
0.000122498
0.000153333
6.40345e-05
8.06245e-05
3.42418e-05
4.29105e-05
1.80228e-05
2.27273e-05
1.04139e-05
1.32536e-05
0.780431
-7.68059e-25
0.830481
-2.90978e-24
4.97486e-17
3.34423e-17
4.15339e-05
-9.46645e-24
-6.82415e-25
-1.59151e-16
7.66128e-07
-2.0439e-08
-2.14721e-08
3.95393e-09
1.64404e-11
-1.40946e-10
-1.74184e-12
1.89462e-12
2.05651e-13
-7.95853e-16
-2.2092e-15
-1.73387e-16
1.43227e-19
8.44819e-19
5.85229e-20
6.96312e-22
-1.39934e-22
-8.71099e-24
1.39078e-22
4.52699e-20
-4.22011e-19
-5.49483e-22
-2.86766e-21
3.02494e-23
-6.14771e-20
1.53788e-22
1.05641e-19
-8.67925e-18
1.42294e-06
-1.09094e-18
-2.72736e-15
9.7436e-15
3.57008e-13
-1.7018e-12
-1.87312e-12
8.04188e-11
-2.06806e-10
-1.03569e-09
-2.34443e-11
1.226e-08
-4.11537e-08
8.7783e-08
-9.57408e-08
3.58811e-07
1.03159e-06
-1.15823e-07
1.51452e-13
1.94555e-12
-1.76107e-23
5.36302e-12
5.62176e-06
-1.28635e-10
8.88143e-07
1.10407e-08
8.32297e-08
5.15359e-08
-4.0057e-08
5.53937e-09
-1.14759e-09
1.1387e-09
-7.3264e-11
-3.54465e-11
7.25264e-12
-3.15885e-13
-6.13797e-24
-1.31568e-22
-2.27605e-22
3.88022e-20
7.9947e-19
3.60954e-18
-1.08609e-16
-2.23621e-15
-9.03624e-15
1.26384e-06
4.07846e-07
-1.07117e-07
1.05756e-07
-5.29391e-08
1.55642e-08
-3.19865e-10
-1.0459e-09
-2.79583e-10
8.75834e-11
-1.15429e-12
-2.1089e-12
4.56994e-13
2.37107e-14
-2.88264e-15
1.10271e-19
-3.18648e-23
-3.48349e-22
4.7358e-21
2.06933e-19
2.23395e-18
-9.20062e-18
-6.32852e-16
-5.7357e-15
1.39863e-14
6.38189e-13
4.82518e-12
-1.86736e-11
-3.55031e-10
6.40579e-10
7.75754e-09
-6.22526e-08
7.00519e-08
-1.69222e-17
-4.47297e-10
4.38197e-09
-6.23027e-09
8.43503e-07
2.68093e-22
-1.72336e-13
3.99822e-19
2.20591e-15
1.27983e-15
8.04998e-05
6.22581e-17
0.994132
1.00615
1.00363
1.00319
1.00652
1.00017
1.00137
0.999567
0.999319
0.99981
0.999466
0.999986
0.999885
1.00002
1.00003
1.00001
1.00002
1
1
0.999999
0.999998
0.999999
0.999998
1
1
1
1
1
1
1
1
1
1
1
1
1
1
1
1
1
1
1
1
1
1
1
1
1
1
1
1
1
1
1
1
1
1
1
1
1
1
1
1
1
1
1
1
1
1
1
1
1
1
1
1
1
1
1
1
1
1
1
1
1
1
1
1
1
1
1
-3.42965e-19
-3.92562e-11
-2.25872e-13
7.63245e-06
-8.21326e-22
2.1746e-16
5.23102e-13
8.37642e-07
5.41423e-07
1.651e-06
-4.79235e-08
-1.62781e-08
4.16117e-09
1.4981e-06
2.06529e-12
3.47945e-06
-1.26544e-10
-1.19718e-10
-6.61299e-25
1.16873e-12
1.13345e-12
2.42529e-12
1.31482e-12
2.07465e-06
4.39059e-14
-3.50089e-16
-3.72285e-16
-2.51663e-17
-5.55816e-20
1.08681e-19
6.46767e-21
6.41339e-23
-3.64419e-06
-7.56545e-07
1.38005e-09
6.30627e-10
3.08514e-22
-9.35387e-22
-2.57557e-16
-3.21992e-16
2.07121e-16
-7.72504e-20
3.11109e-15
-9.50875e-18
-1.50655e-17
9.07997e-17
-6.31057e-21
-1.06087e-19
0.000171348
0.000193242
-3.66755e-15
6.42512e-17
4.42364e-19
3.1189e-19
2.31261e-14
4.45659e-14
-3.12886e-13
-9.4203e-13
1.12899e-11
-3.4857e-11
-1.66987e-10
1.64942e-09
-1.2922e-09
1.05515e-08
-7.53288e-08
1.14502e-07
7.68721e-08
1.51404e-07
8.34954e-07
1.77753e-06
2.43071e-07
3.17896e-08
1
1
0.999999
1
1
1
1
1
1.00001
1.00001
0.999978
0.999992
0.999955
0.999936
1.00012
1.00006
1.00012
1.00019
0.999818
1.00001
0.999312
0.999393
0.999491
0.999019
1.00182
1.00063
1.005
1.00422
1.00507
1.00663
0.995972
1.00293
0.970289
0.984987
0.921853
0.94536
0.848236
0.88253
0.753061
0.79386
0.646231
0.689735
0.53307
0.578582
0.424235
0.464636
0.326687
0.363357
0.244047
0.273853
0.176829
0.20061
0.122951
0.141706
0.0833962
0.0962983
0.0554341
0.064689
0.0357458
0.0421533
0.0224797
0.0266603
0.0138064
0.0165086
0.0082485
0.00999181
0.00480353
0.00583176
0.00279387
0.00340169
0.00160065
0.00196967
0.000889345
0.00109899
0.000486066
0.000606678
0.000259269
0.000325422
0.000137778
0.000172894
7.15956e-05
9.05541e-05
3.79579e-05
4.72984e-05
2.07921e-05
2.57501e-05
-2.24355e-10
-3.58861e-10
-3.0132e-10
2.45868e-06
3.93458e-06
-3.39415e-21
-5.80504e-24
-2.51123e-11
-5.89196e-12
-0.00209075
-1.23973e-23
0.92558
7.78639e-07
8.61872e-06
-9.11172e-24
5.05077e-13
1.77482e-13
2.56739e-06
4.12724e-09
-1.19563e-07
-5.94123e-08
-5.47345e-08
3.18369e-09
-3.4284e-13
1.47413e-13
7.02887e-15
-8.70834e-16
-1.12148e-16
-3.88009e-18
2.49927e-19
2.97324e-20
1.03655e-21
1.98558e-22
0.00947254
3.1237e-06
-1.09073e-05
-1.13237e-05
9.13466e-13
7.18355e-13
0.959572
2.48634e-19
1.39628e-15
-1.0336e-11
-1.00793e-11
-1.91329e-12
-4.28201e-11
-2.53221e-12
1.29687e-10
-2.2914e-10
-2.17937e-09
9.00301e-10
1.4208e-08
-5.63918e-08
1.56822e-07
-1.81729e-07
9.62315e-07
0.0767339
0.0425133
1.30209e-05
2.22987e-20
8.68824e-07
2.95357e-05
-1.96193e-05
1.40509e-07
1.09804e-07
1.20958e-07
-8.43552e-08
1.20881e-08
-1.7861e-09
6.12902e-22
4.90219e-22
-2.03981e-07
1.90129e-07
-7.64111e-08
-0.00337852
0.000562483
-0.00375684
1.99016e-08
0.684452
4.76338e-10
-2.2373e-09
-3.53984e-10
4.27452e-21
9.60022e-20
3.93317e-19
-1.6173e-17
-3.35786e-16
-1.58649e-15
-2.37992e-09
-2.99678e-23
-0.000220654
-0.000990872
0.000205238
2.68717e-19
0.78693
-2.7729e-23
2.91513e-14
2.83882e-19
-1.6016e-18
-3.05794e-23
-8.76533e-17
8.15321e-09
-1.01167e-15
2.36652e-15
2.117e-22
-1.07087e-12
1.38105e-10
-3.59067e-15
5.56014e-19
1.67675e-15
1.29194e-11
1.92731e-09
-1.58278e-10
0.322933
-9.49564e-11
1.0091
1.00853
1.01706
1.00223
1.00742
0.999796
1.00081
0.999654
0.999394
0.999897
0.999686
1.00001
0.999964
1.00002
1.00003
1.00001
1.00002
0.999999
1
0.999999
0.999998
1
0.999999
1
1
1
1
1
1
1
1
1
1
1
1
1
1
1
1
1
1
1
1
1
1
1
1
1
1
1
1
1
1
1
1
1
1
1
1
1
1
1
1
1
1
1
1
1
1
1
1
1
1
1
1
1
1
1
1
1
1
1
1
1
1
1
-2.35578e-06
1.91037e-23
1.7954e-10
2.43966e-20
1.78457e-11
5.20431e-19
-6.14115e-08
1.26802e-15
6.44327e-06
3.25933e-21
-1.22231e-10
-1.95802e-10
-2.24209e-12
2.50888e-13
9.53639e-09
-5.12194e-19
3.8495e-06
3.45368e-22
3.50304e-14
8.64206e-15
5.74837e-15
-7.69796e-09
-4.91861e-17
-3.27799e-18
-2.20434e-18
-1.34688e-20
3.2692e-20
-2.86278e-07
1.38e-12
-2.55323e-12
4.18256e-09
4.93883e-06
-3.83469e-21
1.62382e-15
0.000166268
1.50295e-15
-6.04673e-19
2.68797e-13
4.68122e-13
0.873027
2.55518e-09
-3.66813e-11
1.89944e-10
0.211792
1.07623e-20
9.57267e-21
-2.0609e-10
3.01543e-09
7.95052e-22
1.43384e-21
-4.62954e-21
-1.52554e-09
2.00589e-08
1.61821e-08
-6.26062e-08
2.60384e-07
7.52994e-08
-3.38709e-07
1.85052e-06
7.46984e-07
-1.13634e-19
5.75184e-19
1
1
1
0.999999
1
1
1.00001
1.00001
0.999986
1
0.999951
0.999941
1.00009
1.00002
1.00014
1.00018
0.999952
1.00011
0.999381
0.999535
0.999236
0.998921
1.00128
1.00015
1.00453
1.00351
1.0056
1.00651
0.999006
1.00472
0.977157
0.990632
0.932976
0.956667
0.864137
0.897551
0.773568
0.813873
0.667849
0.713554
0.553957
0.600669
0.444774
0.487142
0.345087
0.383932
0.259183
0.290598
0.189558
0.215236
0.132133
0.153169
0.0891341
0.103654
0.0600515
0.0702698
0.0387565
0.0459676
0.0244331
0.0290878
0.0151418
0.0182343
0.00901752
0.0109864
0.0053083
0.00647033
0.00310715
0.00380637
0.00177818
0.00219463
0.00100394
0.00124456
0.000551902
0.00069172
0.000295083
0.000372584
0.000157736
0.000198928
8.21071e-05
0.000104738
4.25947e-05
5.38894e-05
2.18863e-05
2.71511e-05
-1.3695e-12
-1.87871e-12
2.05621e-11
2.98485e-06
3.68041e-06
4.61341e-06
3.41366e-09
2.38908e-08
-1.05805e-05
-9.09255e-06
-1.19505e-16
-1.31962e-16
5.24563e-07
2.19193e-06
-1.35357e-20
-1.17259e-20
-1.58044e-19
5.38122e-09
4.24405e-09
8.74064e-09
1.46904e-07
6.09242e-07
-1.25983e-08
1.06124e-13
2.69032e-13
9.72379e-14
4.25396e-22
2.82035e-20
0.000386258
0.000200587
9.15691e-07
9.59758e-06
-4.30051e-17
-1.4394e-17
1.56463e-05
2.8779e-14
3.22811e-09
-3.77051e-11
5.36066e-06
-2.35542e-19
-1.00609e-10
6.88052e-22
-4.62768e-08
5.56604e-07
-5.94767e-17
-9.97124e-08
-1.11105e-17
1.57364e-06
-3.15483e-11
-9.25093e-12
-3.47473e-08
-2.12537e-16
1.59115e-05
1.51593e-07
4.40021e-16
4.16905e-09
1.42213e-09
-8.33895e-06
-1.98853e-05
6.68026e-16
1.89277e-15
0.97501
-4.68421e-15
0.658389
-3.02489e-15
6.14283e-19
8.46606e-19
-2.72982e-11
-3.95389e-13
1.69673e-12
-2.92085e-11
0.739487
-4.47031e-11
1.1416e-07
1.00093
-3.1766e-10
-4.29487e-09
0.0211096
-1.46769e-07
2.43252e-07
1.43523e-10
9.12129e-10
-1.01892e-10
-4.64095e-16
7.49238e-16
-3.70524e-10
2.52411e-21
1.06963e-16
-5.75628e-16
-4.52969e-09
-0.00115445
-0.00019901
-1.20575e-12
-1.62839e-13
-0.00506774
-0.00383966
7.54772e-14
4.10815e-14
-3.18828e-10
0.91765
-4.36364e-15
3.06167e-19
3.21691e-07
-9.55579e-08
-2.37018e-09
-1.68476e-07
2.65598e-07
-1.42978e-18
-8.06884e-06
-5.77442e-10
1.00927
1.00429
1.00996
1.0005
1.00288
0.999622
0.999815
0.999768
0.999513
0.999959
0.999822
1.00002
1
1.00001
1.00003
1
1.00001
0.999999
1
0.999999
0.999998
1
0.999999
1
1
1
1
1
1
1
1
1
1
1
1
1
1
1
1
1
1
1
1
1
1
1
1
1
1
1
1
1
1
1
1
1
1
1
1
1
1
1
1
1
1
1
1
1
1
1
1
1
1
1
1
1
1
1
1
0.705216
1.41962e-05
-4.47391e-18
-4.61164e-12
-5.4148e-18
1.61489e-14
1.13404e-15
7.73632e-06
1.39438e-05
-8.24551e-09
-6.08344e-15
-8.35048e-08
-2.11987e-11
-5.63454e-20
1.45909e-06
9.67535e-09
1.65227e-08
-1.08095e-07
0.323259
-3.59857e-19
-2.34683e-19
-5.92032e-11
4.88526e-07
3.81794e-14
3.97878e-14
-1.6229e-18
-1.24374e-18
-2.78666e-07
2.93183e-10
1.11972e-10
-1.27464e-17
-1.35726e-17
-1.63596e-17
9.13899e-19
-1.24543e-19
2.03393e-08
-0.00929573
0.001175
2.10493e-21
-2.93525e-21
-2.78759e-20
1.08773e-21
3.86431e-09
-8.65892e-09
-1.33763e-08
-3.16859e-07
0.0676589
-3.67496e-11
4.72497e-09
-2.38856e-17
-0.00541556
0.000585012
1.39812e-16
0.0712045
0.0315684
0.109768
-3.67701e-08
5.44117e-07
0.882953
0.720368
3.62673e-08
-3.03887e-09
4.93604e-15
3.83684e-15
0.999999
1
0.999999
1.00001
1
0.999994
1.00001
0.999951
0.999954
1.00005
0.999988
1.00014
1.00015
1.00005
1.00017
0.999458
0.999669
0.99905
0.998878
1.00076
0.999711
1.0039
1.00268
1.00581
1.00597
1.00185
1.00623
0.984551
0.996726
0.945887
0.968241
0.883037
0.914893
0.796465
0.837435
0.692819
0.739169
0.581096
0.629612
0.469285
0.515392
0.366977
0.408573
0.278059
0.312514
0.204032
0.232441
0.144502
0.16727
0.0984833
0.115015
0.0659855
0.0774326
0.0429334
0.0510088
0.0272257
0.0325081
0.0169053
0.0203753
0.0102129
0.0124614
0.00601786
0.00739757
0.00351634
0.00433953
0.0020425
0.00252518
0.00116004
0.00144683
0.000637605
0.000803239
0.000349117
0.000442097
0.000185979
0.000238044
9.72865e-05
0.000125976
5.10147e-05
6.68446e-05
2.39271e-05
5.2781e-05
0.000174672
1.24585e-05
-1.54413e-05
-1.96738e-05
1.05497e-18
1.40626e-18
1.62744e-16
6.38024e-17
-4.16028e-07
1.5317e-06
2.26112e-10
-5.91141e-10
-1.67053e-12
4.39922e-08
-5.81165e-12
1.40638e-14
-3.97388e-09
-2.90165e-20
-5.19705e-07
6.09713e-06
-4.60234e-18
-0.0110106
-0.00772792
1.46852e-16
3.31141e-05
7.24543e-06
8.94492e-06
-2.53266e-09
-9.64917e-10
0.18927
-2.04308e-17
-7.58627e-11
-4.52855e-11
9.96573e-09
4.91083e-07
2.72888e-07
2.44546e-12
-5.22552e-12
5.18093e-07
4.10053e-07
-3.44878e-11
-2.43495e-11
1.68839e-15
1.65939e-05
-1.37301e-05
-8.47416e-08
1.65965e-15
2.31734e-15
-5.17439e-15
-6.13423e-07
7.53854e-13
1.39155e-12
7.53171e-16
-1.18178e-15
-5.35675e-13
1.3493e-09
1.09494e-09
1.00726
0.992244
1.31649e-21
-2.38507e-17
-2.81238e-10
-1.14282e-20
-1.35929e-20
-2.98297e-20
0.239597
7.36673e-08
-5.05944e-06
-3.40654e-17
-4.07878e-08
-1.02904e-07
-2.65222e-08
0.999998
1
2.61921e-11
3.10807e-11
-6.18968e-11
-8.97923e-15
1.04265e-06
1.09412e-06
1.19024e-06
-0.000322668
-8.11256e-16
-1.02095e-15
1.79756e-15
4.2344e-14
7.06122e-14
3.98248e-06
-0.00301168
-0.00762374
-0.0018765
-7.34786e-12
-5.71673e-12
2.03737e-16
-1.41098e-19
-2.23213e-19
1.16273e-18
4.92198e-09
4.93841e-09
2.46454e-10
4.58127e-06
1.16637e-13
6.95606e-14
0.926392
7.39893e-06
1.84632e-16
9.5036e-08
1.00652
1.0016
1.0051
0.999788
1.00058
0.99964
0.999493
0.999871
0.999658
1
0.999933
1.00002
1.00002
1.00001
1.00002
0.999999
1
0.999998
0.999997
0.999999
0.999997
0.999999
0.999998
0.999999
0.999999
0.999999
0.999999
0.999999
0.999999
0.999999
0.999998
0.999999
0.999998
0.999999
0.999998
0.999999
0.999998
0.999999
0.999998
0.999999
0.999998
0.999999
0.999998
0.999999
0.999998
0.999999
0.999998
0.999999
0.999998
0.999999
0.999998
0.999999
0.999998
0.999999
0.999998
0.999999
0.999998
0.999999
0.999998
0.999999
0.999998
0.999999
0.999998
0.999999
0.999998
0.999999
0.999998
0.999999
0.999998
0.999999
0.999998
0.999999
0.999998
0.999999
0.999998
0.999998
0.461913
1
-6.7572e-06
1.9157e-09
-4.00583e-07
9.14579e-06
-1.63722e-18
5.99142e-07
2.00338e-15
-1.9158e-13
-3.06929e-18
-1.42571e-08
-1.20309e-11
0.441637
1.07083e-16
-3.39869e-17
-4.41384e-17
2.33425e-16
9.97713e-10
-1.03071e-07
-5.58363e-07
-1.91395e-14
2.97355e-07
-9.90722e-15
7.90385e-06
-2.24186e-11
-5.15737e-11
-2.079e-11
-6.10353e-19
0.000193345
0.000257068
0.480209
-1.53706e-18
-1.51577e-18
0.980044
1.26625e-17
3.31282e-18
2.47083e-10
0.145562
-6.34575e-13
-8.64535e-13
2.93255e-12
-1.00927e-12
-2.52216e-14
0.380168
1.43037e-05
-3.86353e-12
1.38675e-11
2.67199e-10
1
1.0092
1.01154
1.00152
4.4624e-10
5.72638e-09
-1.51679e-08
-4.76576e-07
3.96452e-08
0.811422
0.898621
0.516607
9.38152e-07
7.71544e-07
3.47052e-09
7.38032e-09
3.54233e-09
-7.64164e-08
-5.57471e-07
5.43223e-15
5.2432e-15
1
1
1.00001
0.999964
0.999973
1.00001
0.999962
1.00013
1.0001
1.0001
1.00019
0.999559
0.99982
0.999002
0.998999
1.00031
0.999449
1.0031
1.00177
1.00548
1.00503
1.00399
1.00694
0.991609
1.00143
0.959527
0.978501
0.902476
0.933401
0.821099
0.861088
0.722471
0.767785
0.612337
0.661531
0.499762
0.546775
0.395721
0.438872
0.300925
0.338923
0.222958
0.252638
0.160892
0.185051
0.109744
0.128703
0.0736277
0.0862723
0.0484642
0.0576204
0.030648
0.03689
0.0191761
0.0231328
0.0117917
0.0144098
0.00698073
0.00858574
0.0041404
0.00509234
0.00240543
0.00298379
0.00136191
0.00169228
0.00076677
0.000966356
0.00041833
0.000531986
0.000230309
0.000293014
0.000125224
0.00016223
6.74514e-05
8.93201e-05
2.02634e-05
2.18479e-05
3.30454e-05
1.46129e-18
-1.78419e-18
5.31032e-16
3.82818e-16
3.48688e-06
9.22702e-06
-9.17945e-10
1.96417e-10
5.84664e-08
-7.52635e-08
-3.24766e-08
-2.84447e-18
-2.20178e-05
-1.42712e-05
-3.22201e-12
-1.03613e-12
-6.21095e-08
2.3889e-08
2.20447e-08
8.66577e-10
2.6805e-10
3.80612e-06
-1.00291e-11
-1.00826e-11
1.6327e-15
-2.08464e-13
-1.24263e-13
6.61742e-17
0.227186
-5.07041e-19
-1.6244e-19
-9.45674e-10
8.00382e-05
3.24795e-05
1.02119e-06
9.25681e-07
-8.55187e-12
-0.00126088
1.15902e-05
-6.82793e-15
-2.06815e-14
1.39043e-05
1.73292e-05
7.56343e-15
7.04945e-09
1.06824e-06
2.33024e-09
2.52601e-09
-1.34056e-19
-5.06084e-20
-2.27784e-19
-8.43553e-08
-9.248e-08
1
1.54618e-15
-5.27662e-15
0.0898452
0.0176231
-1.03484e-10
4.29664e-12
4.54524e-05
0.00014339
0.000315571
9.11409e-05
3.18306e-15
2.28737e-15
-1.28519e-15
-1.55274e-15
3.42713e-15
-0.00493096
-0.0038204
1.44891e-13
8.51428e-14
6.47053e-08
-5.88582e-08
1.95666e-18
2.18985e-18
2.43324e-18
-1.27575e-05
-4.08121e-06
7.15762e-08
1.24342e-15
7.74491e-12
7.88442e-12
1.0434e-14
1.28118e-17
-1.31479e-13
1.00315
1.00032
1.00206
0.99961
0.999787
0.999757
0.999524
0.999948
0.999809
1.00002
0.999991
1.00001
1.00003
1
1.00001
0.999998
1
0.999998
0.999998
0.999999
0.999999
0.999999
1
0.999999
1
0.999999
1
0.999999
1
0.999999
1
0.999999
1
0.999999
1
0.999999
1
0.999999
1
0.999999
1
0.999999
1
0.999999
1
0.999999
1
0.999999
1
0.999999
1
0.999999
1
0.999999
1
0.999999
1
0.999999
1
0.999999
1
0.999999
1
0.999999
1
0.999999
1
0.999998
1
-7.69693e-18
-8.15592e-07
2.2293e-16
1.27917e-15
2.09059e-05
3.22765e-05
2.10228e-10
4.35565e-08
4.6053e-08
-0.000373941
0.000169744
2.17151e-05
4.88003e-05
2.61327e-05
3.15698e-05
3.75768e-05
5.96061e-17
4.3583e-17
7.77364e-07
8.51676e-09
1.75031e-06
1.06825e-06
4.75904e-07
1.99957e-06
-3.01105e-20
1.00001
-1.18409e-15
1.02023e-15
0.999977
0.999989
0.999978
0.999949
1.0001
1.00006
1.00014
1.00018
0.999734
0.999989
0.999096
0.999206
0.999956
0.999274
1.00207
1.00083
1.00474
1.00383
1.00555
1.00695
0.997857
1.00524
0.971582
0.988353
0.92302
0.949799
0.847867
0.886091
0.752132
0.796466
0.646631
0.693851
0.533065
0.58267
0.425367
0.469932
0.329103
0.369185
0.243772
0.276826
0.177995
0.203209
0.123579
0.144545
0.0824745
0.0972292
0.0548758
0.0647726
0.0353986
0.0424503
0.0220842
0.0266461
0.0138339
0.0167117
0.00825247
0.0101728
0.00485709
0.00599941
0.00284688
0.00353151
0.00160333
0.00200978
0.000914949
0.0011397
0.000513358
0.000644693
0.000284752
0.000358208
0.000164726
0.000207451
9.61445e-05
6.84792e-05
0.000128099
3.36711e-11
-1.08476e-10
7.71877e-07
-9.37849e-07
1.7967e-06
6.67495e-16
5.89767e-16
1.54995e-05
2.58337e-05
1.61976e-09
1.06544e-08
-0.00742315
-0.00937778
-2.38221e-07
-9.70295e-07
-3.90634e-07
-2.46417e-07
-2.32115e-08
-4.32683e-09
1.11294e-08
5.15391e-08
-3.98281e-20
-1.2168e-19
-5.92738e-20
0.800147
-7.44387e-13
1.00668
-6.9568e-17
-5.15901e-17
0.999999
1.00742
1.0082
1.69494e-10
2.92364e-11
-3.6762e-07
4.0534e-11
1.00001
1.58489e-12
1.78418e-16
-7.04546e-08
-5.33414e-13
-4.20393e-13
3.9666e-07
1
1.01123
-2.88235e-12
-2.89985e-12
-0.00306952
2.1699e-11
-9.63062e-12
0.000170055
0.000110937
1.25465e-06
1.05627e-13
7.38561e-16
-2.61734e-08
-2.42513e-08
1.80637e-18
-0.0016201
-2.55449e-14
1.93469e-13
-1.37092e-09
-1.33466e-09
-2.34131e-14
8.31567e-18
-7.6445e-20
7.90362e-06
6.8033e-20
6.85504e-10
-1.56331e-07
0.967021
0.990011
0.880756
-6.23396e-08
-1.20768e-07
-9.02975e-14
0.406815
0.52581
0.186207
2.77879e-09
4.41315e-09
3.91339e-12
-1.29503e-14
-7.78748e-15
-4.64216e-15
-4.1638e-14
9.19287e-11
2.36748e-10
1.43478e-15
-1.30915e-05
-1.83906e-05
-1.90622e-15
0.000257518
0.000234392
1.21095e-09
-1.34769e-11
-1.9823e-11
8.57945e-06
-1.30723e-12
-9.86687e-13
-0.00714463
-0.00703112
7.8426e-08
2.6029e-18
-5.87128e-18
1.7472e-09
1.18091e-09
3.6981e-18
4.21819e-18
4.52377e-18
7.78348e-09
-1.46983e-11
2.24964e-11
1.83429e-06
8.62051e-07
1.00504e-07
6.4008e-19
1.78983e-05
-2.37425e-07
1.28456e-06
-1.59743e-12
-3.44982e-12
-1.46168e-12
1.00543
4.55417e-11
3.72181e-11
1.00132
1.0041
0.999729
1.00042
0.999639
0.999497
0.999874
0.999677
1
0.999936
1.00002
1.00003
1.00001
1.00003
1
1.00001
1
1.00001
1
1.00001
1
1.00001
1
1.00001
1
1.00001
1
1.00001
1
1.00001
1
1.00001
1
1.00001
1
1.00001
1
1.00001
1
1.00001
1
1.00001
1
1.00001
1
1.00001
1
1.00001
1
1.00001
1
1.00001
1
1.00001
1
1.00001
1
1.00001
1
1.00001
1
1.00001
1.00001
1.00001
1.00001
1.00001
1.00001
-1.50252e-14
-5.57797e-07
1.00184
1.45646e-16
8.44131e-07
0.000429409
-2.26882e-15
-1.85895e-12
-1.47825e-12
1.78503e-16
9.1726e-18
-6.44985e-14
-4.97962e-14
-1.64195e-10
7.28586e-11
-1.57981e-09
-1.73533e-19
-3.87448e-08
7.13476e-08
-6.08642e-07
2.93477e-05
2.24398e-16
2.80787e-17
2.27317e-17
-1.56995e-19
1.82621e-07
7.49306e-07
2.7968e-08
-2.60125e-17
1.75778e-16
4.6111e-12
3.04397e-06
1.25802e-06
1.67178e-05
3.46189e-05
0.99999
1
6.41837e-15
6.01186e-15
0.999962
0.999953
1.00006
1.00002
1.00013
1.00014
0.9999
1.0001
0.999304
0.999465
0.999731
0.999274
1.00113
1.0002
1.00372
1.00265
1.00619
1.00653
1.00212
1.00698
0.981766
0.994867
0.939751
0.962144
0.872674
0.906206
0.781539
0.823804
0.6779
0.723595
0.567553
0.614972
0.457854
0.501801
0.357332
0.396775
0.268586
0.303167
0.195684
0.222682
0.137924
0.159142
0.0941552
0.10996
0.0620147
0.0731599
0.0404809
0.0479288
0.0257349
0.0308885
0.0158976
0.0191594
0.00971641
0.0118089
0.00580709
0.00710685
0.00337463
0.00414324
0.00193835
0.00240903
0.00109485
0.00136705
0.000614677
0.000769634
0.000345723
0.000429794
0.00020079
0.000241235
-2.10349e-13
-1.78645e-13
1.16015e-08
-4.2008e-08
-0.00509828
-0.00953324
-1.24989e-06
1.249e-06
1.81747e-06
1.88374e-05
1.38945e-09
8.50805e-08
1.06587e-07
1.00993
1.0101
-2.35016e-15
-1.70493e-10
2.80372e-11
1.09425e-07
-9.7071e-17
-4.98771e-09
-1.48982e-06
4.62714e-11
3.85784e-11
1.01005
0.000144123
-4.41107e-12
-4.87093e-13
-4.97214e-13
-0.00202132
5.92766e-12
7.16508e-12
-1.63086e-11
2.23149e-11
8.85223e-07
-7.68472e-08
3.89999e-11
-2.24146e-15
-0.000344377
4.51254e-11
-1.6405e-09
-1.77957e-12
6.9937e-18
8.89467e-08
-9.85455e-15
7.61862e-17
0.97733
0.948336
-6.80955e-07
0.415644
5.60909e-05
8.00619e-05
2.06823e-15
2.72018e-08
3.08976e-08
4.75533e-05
3.94654e-05
7.06607e-17
9.86074e-17
-2.72689e-15
0.0315322
1.85524e-06
9.98191e-08
1.38945e-13
-2.45365e-12
-8.88806e-15
3.64599e-09
1.55654e-16
-2.30742e-09
0.00943247
0.775528
0.856433
0.520652
-1.05968e-15
0.120649
-5.55314e-09
-7.5874e-16
-4.50335e-15
4.73159e-05
5.79584e-05
6.84521e-05
0.000297351
0.000351013
-2.44608e-05
-1.09843e-05
1.04011e-10
9.67186e-05
-1.88593e-17
-1.1982e-16
-1.51763e-06
-0.00522354
3.52986e-06
-0.00840627
-0.00933456
6.73806e-09
-5.30866e-08
-7.13957e-07
1.35098e-09
5.90711e-10
0.000307715
0.000276411
-2.79977e-08
-6.8339e-06
-3.63476e-06
6.71029e-17
1.43796e-08
3.32456e-09
-1.97388e-08
-1.62105e-08
8.63799e-11
2.81907e-11
-2.46083e-10
-2.40894e-10
1.00836
-7.7345e-06
-1.78082e-06
1.00287
1.00695
1.00007
1.00149
0.999546
0.999564
0.999771
0.999518
0.999967
0.999844
1.00003
1.00001
1.00002
1.00003
1.00001
1.00001
1
1
1
0.999999
1
0.999999
1
1
1.00001
1
1.00001
1
1.00001
1
1.00001
1
1.00001
1
1
1
1.00001
1
1.00001
1
1.00001
1
1.00001
1
1.00001
1
1.00001
1
1
1
1.00001
1
1
1
1
1
1.00001
1
1.00001
1
1.00001
1
1
0.999996
0.999999
-2.17525e-08
-6.12101e-07
0.203941
0.000173241
1.11044e-11
9.57779e-12
8.23449e-18
4.64996e-18
-6.20802e-14
1.69628e-06
1.31015e-06
7.29026e-09
-1.3302e-15
2.03744e-10
8.03699e-12
1.46886e-07
-6.3158e-15
-4.66423e-15
0.000117767
1.02818e-14
1.08394e-14
1.73744e-15
-8.573e-14
-5.85983e-14
1.20231e-17
8.20775e-18
2.59531e-10
-3.11486e-09
-3.21544e-10
5.21199e-07
-8.3339e-07
5.62558e-05
4.19054e-05
-6.00218e-06
7.45976e-08
1.75505e-07
-1.1981e-06
-2.20434e-06
-7.26081e-18
-7.82986e-19
0.999956
0.999962
1.00004
0.999998
1.00012
1.0001
1.00005
1.00019
0.999463
0.99965
0.999533
0.99928
1.00037
0.999646
1.00288
1.00166
1.00645
1.00587
1.00492
1.00814
0.989488
0.999979
0.953687
0.973289
0.892478
0.923355
0.808372
0.847375
0.708736
0.751653
0.598076
0.644947
0.485473
0.530214
0.383057
0.423623
0.290511
0.326194
0.213378
0.241307
0.151717
0.174388
0.10406
0.12087
0.069618
0.0816461
0.0455521
0.0538651
0.0290484
0.0346842
0.0181692
0.0217705
0.0111782
0.0135174
0.0066553
0.00810315
0.00389156
0.00477479
0.00224622
0.00277722
0.00128295
0.00158481
0.000737947
0.000920932
0.000406936
0.000515366
0.000219133
0.000276627
-8.89139e-14
-1.18646e-13
1.88032e-10
5.36519e-10
1.44809e-10
-0.00384464
-0.00121999
5.04652e-06
1.1092e-06
-6.16784e-08
6.82897e-08
0.0034359
-0.0054739
3.1298e-06
5.91095e-06
3.58788e-05
6.59105e-05
6.06892e-09
-1.29143e-06
0.988897
-4.84319e-08
-8.6683e-08
-4.93418e-08
4.89181e-07
-1.82404e-05
-2.7137e-05
-1.86295e-05
3.11211e-06
1.10123e-10
-7.20545e-12
-1.33906e-05
-2.22375e-11
-2.46248e-11
4.86615e-11
2.94517e-13
4.19601e-14
2.72034e-10
8.15385e-06
7.51098e-06
4.69478e-07
0.141512
-0.00865399
-1.62502e-09
6.94794e-09
1.01093
-1.80882e-17
0.000143728
-5.67353e-14
-2.28515e-14
1.80249e-08
1.36829e-08
1.75786e-10
6.95609e-08
0.0278304
6.4655e-07
-1.83489e-14
-3.29919e-10
-3.20915e-10
1.35788e-11
2.01955e-13
0.000256263
-0.000273568
0.000526949
-2.21681e-15
-2.51032e-12
1.54921e-11
9.12272e-11
1.66384e-10
-1.24733e-08
-2.8363e-08
-2.89082e-08
-2.05083e-16
1.92156e-11
4.31844e-12
-3.00811e-13
1.55779e-12
-7.9706e-13
4.02819e-05
0.0440112
0.398474
0.201111
8.64871e-05
7.26856e-05
1.01332
0.000210154
-1.85704e-16
-1.46494e-14
-8.72005e-16
-1.2036e-16
-0.00831043
-0.0137781
1.0858e-06
1.14158e-06
-7.25702e-17
-5.00306e-17
-2.53537e-15
0.943217
0.905741
1.72703e-14
1.66662e-14
0.00035738
0.000428848
-6.99721e-08
-1.14926e-05
-3.29362e-06
1.00546
-1.85504e-13
-1.42997e-13
0.000102686
8.63718e-05
-9.5187e-08
1.11985e-10
4.80904e-11
1.00553
1.00097
1.00382
0.999553
1.00003
0.999616
0.999358
0.999877
0.999673
0.999999
0.999936
1.00001
1.00001
0.999995
0.999998
0.999985
0.999979
0.999982
0.99997
0.999982
0.999968
0.999983
0.999968
0.999984
0.99997
0.999984
0.99997
0.999984
0.999969
0.999984
0.99997
0.999984
0.999971
0.999984
0.99997
0.999984
0.999971
0.999984
0.99997
0.999984
0.999971
0.999984
0.999971
0.999984
0.999971
0.999984
0.999971
0.999984
0.999971
0.999985
0.999972
0.999984
0.999972
0.999984
0.999971
0.999984
0.999972
0.999983
0.999974
0.999976
0.999964
0.999973
-4.1034e-10
-1.87596e-09
-0.00802272
-0.00320736
3.55928e-07
7.52752e-08
0.000130177
6.42411e-06
1.54076e-06
-4.8976e-17
-5.44326e-17
-2.23512e-16