/*--------------------------------*- C++ -*----------------------------------*\
  =========                 |
  \\      /  F ield         | OpenFOAM: The Open Source CFD Toolbox
   \\    /   O peration     | Website:  https://openfoam.org
    \\  /    A nd           | Version:  7
     \\/     M anipulation  |
\*---------------------------------------------------------------------------*/
FoamFile
{
    version     2.0;
    format      ascii;
    class       volScalarField;
    location    "0.05";
    object      T;
}
// * * * * * * * * * * * * * * * * * * * * * * * * * * * * * * * * * * * * * //

dimensions      [0 0 0 1 0 0 0];

internalField   nonuniform List<scalar> 
5936
(
0.499965
0.931476
1.01595
1.0288
1.02443
1.0715
1.02564
1.07553
1.02537
1.07374
1.02537
1.07318
1.02479
1.0737
1.02507
1.07544
1.02514
1.07418
1.02471
1.07448
1.02509
1.07451
1.02494
1.07247
1.02424
1.07369
1.02513
1.07633
1.0256
1.07257
1.02484
1.07261
1.02572
1.07578
1.02516
1.0727
1.02574
1.07538
1.02572
1.07254
1.02547
1.0741
1.02545
1.07577
1.02425
1.07303
1.02466
1.07584
1.02614
1.07445
1.02523
1.07164
1.02463
1.07448
1.02513
1.07499
1.02505
1.07302
1.02424
1.07392
1.0251
1.07636
1.02558
1.07255
1.02479
1.07259
1.02552
1.07582
1.02468
1.07297
1.02494
1.07611
1.02487
1.07332
1.0249
1.07379
1.02608
1.07558
1.02584
1.07229
1.02582
1.07293
1.02649
1.07428
1.02638
1.07233
1.02483
1.07401
1.02527
1.07588
1.02806
1.07128
1.03281
1.06972
1.03915
1.06747
1.03904
1.07589
1.06124
0.121397
0.00282495
-1.91234e-05
-1.6358e-06
-3.28796e-08
-2.57171e-10
4.79391e-13
4.71994e-14
6.47607e-16
4.66509e-18
8.80953e-21
-2.01927e-22
-3.02069e-24
-2.3216e-26
-7.06083e-29
-5.66612e-32
3.84568e-34
5.89397e-36
2.81067e-39
0
0
0
0
0
0
0
0
5.30745e-47
-3.13727e-44
-7.08497e-43
1.06303e-41
1.68889e-39
-1.36448e-37
-1.40205e-35
-7.06145e-35
2.36426e-34
1.11187e-32
-3.30867e-32
1.25184e-31
-2.83877e-33
-6.10754e-30
-5.53763e-29
1.43002e-27
5.19304e-27
5.20901e-27
2.06979e-26
2.72808e-26
2.46727e-26
1.18852e-26
4.2294e-27
0.75446
0.882469
0.379044
0.479876
0.183469
0.232891
0.077294
0.101976
0.0308895
0.0413133
0.0118118
0.0160309
0.00421321
0.00578247
0.00150756
0.00207577
0.000477216
0.000673073
0.000150274
0.000212249
4.76267e-05
6.72788e-05
1.51756e-05
2.14857e-05
4.47999e-06
6.41048e-06
1.34504e-06
1.91782e-06
3.93548e-07
5.64298e-07
1.11389e-07
1.60235e-07
3.18728e-08
4.59544e-08
8.50678e-09
1.23891e-08
2.27826e-09
3.29003e-09
6.43034e-10
9.26076e-10
1.62418e-10
2.35422e-10
4.21075e-11
6.09372e-11
1.06149e-11
1.54991e-11
2.56352e-12
3.72187e-12
6.71729e-13
9.7125e-13
1.68085e-13
2.44455e-13
4.10028e-14
5.95571e-14
1.0008e-14
1.45635e-14
2.35178e-15
3.43808e-15
5.56472e-16
8.09312e-16
1.32624e-16
1.92305e-16
3.08514e-17
4.49213e-17
6.88079e-18
1.00068e-17
1.54374e-18
2.25344e-18
3.33001e-19
4.83211e-19
7.43979e-20
1.07959e-19
1.6624e-20
2.42218e-20
3.53921e-21
5.13099e-21
7.8709e-22
1.14356e-21
1.67147e-22
2.44538e-22
3.51986e-23
5.11149e-23
7.65791e-24
1.12242e-23
1.63799e-24
2.40585e-24
3.75694e-25
5.52345e-25
9.64925e-26
1.4448e-25
3.21147e-26
4.88294e-26
1.87379e-26
2.98258e-26
1.23503e-26
6.39094e-27
1.96246e-26
0
1.09788e-26
0.0239793
0.000159778
-7.99606e-06
-2.64913e-07
-3.20944e-09
-1.09704e-11
2.91274e-13
5.75503e-15
6.37023e-17
3.66909e-19
-7.36508e-22
-2.67342e-23
-2.14823e-25
-1.20655e-27
-3.26397e-30
1.4644e-32
2.2787e-34
1.22463e-37
6.03139e-41
0
0
0
0
-3.80839e-05
0
1.75491e-26
0
0
1.25252e-45
-1.68512e-44
5.37838e-42
4.51911e-40
-7.37789e-39
1.15173e-38
5.17404e-36
3.53381e-35
7.78429e-33
2.09667e-32
-3.83695e-32
5.92688e-31
1.19265e-30
4.16586e-29
1.96753e-28
3.16013e-27
5.87268e-27
9.18724e-27
2.57336e-26
2.81304e-26
1.85837e-26
-7.30971e-06
0.0980591
-1.68602e-07
0.470827
-3.15648e-05
-1.27072e-06
-1.89411e-08
-9.38259e-11
1.20746e-12
3.30199e-14
3.7477e-16
2.21057e-18
-2.86433e-21
-1.56473e-22
-1.47182e-24
-8.22986e-27
-2.09486e-29
9.17606e-32
1.3532e-33
7.84294e-37
3.90347e-40
0
0
0
0
0
0
2.03683e-45
-2.9314e-44
8.78936e-42
7.44647e-40
-1.2175e-38
1.23303e-38
8.14174e-36
6.17176e-35
1.26681e-32
3.41489e-32
-6.15948e-32
9.63392e-31
1.89732e-30
6.60464e-29
3.31886e-28
5.119e-27
9.53047e-27
1.49512e-26
4.13745e-26
4.45535e-26
2.92446e-26
0
-1.57957e-09
4.91086e-13
2.58594e-13
3.5733e-15
3.09974e-17
9.57926e-20
-1.04232e-21
-1.81893e-23
-1.35962e-25
-4.57295e-28
-3.69465e-31
2.44269e-33
3.88587e-35
1.76481e-38
0
0
0
0
0
8.78822e-47
-5.13845e-44
-1.17093e-42
1.77516e-41
2.76763e-39
-2.18069e-37
-2.2868e-35
-1.16354e-34
3.90148e-34
1.81264e-32
-5.42738e-32
2.06034e-31
4.79217e-34
-9.56256e-30
-8.47847e-29
2.30327e-27
8.3844e-27
8.52444e-27
3.34375e-26
4.38196e-26
3.90071e-26
1.97105e-26
0.013977
0.00104818
0
0.649935
0.000126282
0.881927
0.919065
0.773811
0.922095
0.79579
0.920759
0.796447
0.920029
0.793829
0.9255
0.796672
0.924914
0.804053
0.926182
0.805628
0.928909
0.808488
0.927397
0.809419
0.926881
0.806837
0.930983
0.806277
0.926285
0.808255
0.924679
0.805584
0.930268
0.804987
0.923802
0.807823
0.928732
0.803806
0.928413
0.810231
0.921539
0.803731
0.929742
0.802898
0.925715
0.807268
0.926207
0.801511
0.926043
0.804545
0.920666
0.803612
0.927347
0.803811
0.931561
0.810744
0.9281
0.810098
0.927344
0.807191
0.93135
0.806906
0.926464
0.808605
0.924779
0.805758
0.930468
0.805123
0.924583
0.808334
0.930349
0.805827
0.931611
0.814457
0.928446
0.811719
0.927993
0.807329
0.924701
0.805795
0.92181
0.80223
0.928204
0.801915
0.922851
0.804465
0.926473
0.802071
0.939308
0.811144
0.94113
0.828388
0.937835
0.827174
0.925032
0.814219
0.907934
0.766105
0.796845
0
0.00727517
-6.03377e-08
0.20316
-5.4181e-08
-1.17769e-09
-1.19588e-11
-2.69369e-15
1.18788e-15
1.82844e-17
1.57684e-19
4.79736e-22
-5.14949e-24
-6.9551e-26
-2.94565e-28
-8.84392e-31
6.22238e-34
9.47534e-35
3.71408e-37
3.19426e-40
0
0
0
0
2.02116e-46
0.00106067
0.0041428
0.000575226
0
3.54242e-26
3.75812e-26
-8.891e-09
-3.62989e-08
-5.46551e-09
0.467941
-1.16754e-43
-2.72058e-42
5.26185e-41
6.07912e-39
-4.70778e-37
-4.91229e-35
-2.6853e-34
9.19042e-34
3.92144e-32
-1.25475e-31
5.06798e-31
-1.26676e-31
-1.89669e-29
-1.77889e-28
5.17781e-27
1.74758e-26
1.71264e-26
7.28208e-26
9.02472e-26
7.87811e-26
3.40685e-26
6.53637e-26
0.0417895
0.135276
0.0262406
1.09558e-05
6.00529e-05
3.37629e-06
-2.49534e-07
-2.0205e-07
0.389534
0.511641
0.18466
0.240521
0.0808098
0.109041
0.0325386
0.0445439
0.0124597
0.0173033
0.00443668
0.00633459
0.00154471
0.002178
0.000510251
0.000731523
0.000163789
0.00023468
5.35445e-05
7.65633e-05
1.6827e-05
2.39873e-05
5.27935e-06
7.60203e-06
1.57802e-06
2.29286e-06
4.56087e-07
6.60243e-07
1.36788e-07
1.97994e-07
3.81229e-08
5.5162e-08
1.05117e-08
1.52418e-08
2.88347e-09
4.22595e-09
7.5839e-10
1.10185e-09
1.99231e-10
2.92267e-10
5.28905e-11
7.7113e-11
1.35684e-11
1.97384e-11
3.35747e-12
4.94957e-12
8.74393e-13
1.27345e-12
2.22284e-13
3.22693e-13
5.69271e-14
8.32963e-14
1.3516e-14
1.97417e-14
3.13826e-15
4.55049e-15
7.8665e-16
1.14793e-15
1.8079e-16
2.6615e-16
4.13368e-17
6.01453e-17
9.75553e-18
1.42855e-17
2.15356e-18
3.14242e-18
4.7521e-19
6.96578e-19
1.07999e-19
1.57458e-19
2.42744e-20
3.53111e-20
5.2967e-21
7.77245e-21
1.18478e-21
1.72552e-21
2.5416e-22
3.68942e-22
5.50282e-23
8.09038e-23
1.18474e-23
1.72035e-23
2.62815e-24
3.83144e-24
6.47327e-25
9.45447e-25
1.88521e-25
2.72636e-25
7.35194e-26
1.1004e-25
0.748654
0
0.653164
0
-8.85614e-38
-2.80794e-38
-6.05897e-07
0
0
-7.76896e-37
-1.24824e-10
-6.99143e-13
6.68509e-15
1.83202e-16
2.04653e-18
1.0809e-20
2.42355e-23
-2.33896e-25
-4.60428e-27
-7.76306e-30
1.40439e-31
1.08414e-33
6.86166e-36
1.44924e-38
1.9238e-42
0
0
0
3.34354e-46
3.8494e-39
1.69081e-39
-3.0392e-43
-7.21533e-44
4.61401e-45
-4.38793e-42
7.66112e-45
1.93487e-41
9.90463e-39
-6.3917e-10
5.80818e-38
2.14478e-35
1.90537e-34
2.81672e-32
7.08976e-32
-1.11087e-31
2.16243e-30
4.07511e-30
1.42009e-28
8.46182e-28
1.08379e-26
1.93805e-26
3.25666e-26
8.52127e-26
8.81009e-26
5.90072e-26
-1.43426e-13
-1.80823e-27
-3.6045e-25
0
-2.20055e-23
5.21674e-26
3.58266e-21
1.22871e-25
1.43464e-25
1.14471e-25
2.70524e-26
2.77003e-26
8.24855e-27
-2.83848e-28
-3.05189e-29
-1.89421e-31
8.18246e-31
-2.01652e-31
6.41922e-32
0
0
0
0
1.86065e-39
2.2807e-36
5.24749e-34
-7.61884e-34
-6.70616e-30
8.87872e-26
1.40662e-25
1.3651e-25
5.15883e-26
3.07623e-26
1.6986e-26
1.29675e-27
2.29962e-28
6.72272e-30
3.545e-30
-1.77277e-31
1.14264e-31
4.57089e-32
3.14404e-34
3.37235e-35
3.19134e-41
0
0
0
1.13999e-41
8.48728e-38
3.8523e-35
6.82076e-33
7.9846e-31
-5.31411e-29
-2.66824e-26
-1.36522e-24
1.78084e-22
6.58052e-20
1.10544e-17
8.59484e-16
2.22398e-14
-5.04718e-12
3.95734e-38
8.94987e-19
9.80347e-17
5.71581e-15
-6.40495e-11
-1.89508e-43
1.45562e-33
8.34042e-41
-4.34558e-34
-8.00292e-35
1.64297e-07
-1.97957e-37
0.554466
0.544299
0.433317
0.54062
0.423336
0.545113
0.421943
0.555487
0.429826
0.562588
0.441254
0.56729
0.44696
0.564739
0.449585
0.564881
0.448147
0.564065
0.448938
0.563859
0.447632
0.56423
0.447707
0.561539
0.447403
0.564035
0.445329
0.564019
0.44896
0.564044
0.446107
0.560258
0.445492
0.558986
0.44182
0.558981
0.441059
0.558904
0.44333
0.563216
0.444749
0.5618
0.447728
0.563191
0.446265
0.567678
0.447236
0.56464
0.449462
0.5653
0.44834
0.564656
0.449351
0.564236
0.448101
0.56441
0.447988
0.56165
0.447542
0.564436
0.44545
0.566092
0.449485
0.568756
0.448436
0.56676
0.450304
0.567161
0.449727
0.562343
0.449737
0.560653
0.446176
0.562198
0.446276
0.559534
0.447185
0.564107
0.445675
0.569596
0.450097
0.58324
0.456816
0.589369
0.47354
0.580598
0.477486
0.552756
0.429881
0.457099
8.46722e-39
1.08462e-22
3.84581e-33
8.41412e-26
-4.23407e-43
1.30646e-37
-1.25435e-26
-2.56934e-11
-1.92846e-10
-1.15595e-10
-1.92552e-13
-1.76016e-16
2.36121e-17
2.35493e-25
3.52502e-19
6.84921e-26
1.90784e-21
8.26802e-22
0
-4.04738e-25
-7.36352e-26
-3.71463e-25
-6.79817e-26
1.69993e-25
-1.20522e-28
-6.51308e-31
-3.12633e-34
1.25166e-35
4.10778e-38
2.82828e-41
2.09057e-44
0
-1.3574e-09
-8.33995e-10
3.06509e-18
1.88024e-18
1.69621e-44
-6.99055e-43
-1.59217e-36
-2.59843e-36
3.27152e-38
-1.03061e-41
-9.54774e-34
2.08039e-38
3.34806e-38
-3.26783e-37
-6.97596e-43
-1.66311e-41
3.20829e-06
1.30235e-06
8.68231e-35
-1.55979e-33
2.32252e-40
1.37484e-38
8.6476e-34
1.43007e-33
5.9829e-33
1.35675e-31
-4.55494e-31
1.83824e-30
-8.05717e-31
-6.05646e-29
-5.68373e-28
1.80082e-26
5.64785e-26
5.31995e-26
2.34569e-25
2.85609e-25
2.82501e-25
3.82935e-25
-2.64394e-12
-1.22973e-12
0.204087
0.264838
0.0931535
0.124747
0.0374863
0.0515372
0.0147916
0.0203904
0.00544559
0.00769979
0.00183632
0.00262271
0.000590237
0.000850461
0.000195344
0.000279968
6.38535e-05
9.14422e-05
2.03042e-05
2.93364e-05
6.42598e-06
9.28568e-06
1.98084e-06
2.85292e-06
5.83556e-07
8.50984e-07
1.68156e-07
2.45148e-07
4.70812e-08
6.88096e-08
1.30771e-08
1.90564e-08
3.52109e-09
5.16328e-09
9.56176e-10
1.39623e-09
2.60012e-10
3.82421e-10
6.7012e-11
9.85518e-11
1.73804e-11
2.53933e-11
4.53117e-12
6.68937e-12
1.1561e-12
1.69095e-12
2.96017e-13
4.35674e-13
7.52998e-14
1.1087e-13
1.81754e-14
2.69178e-14
4.36125e-15
6.42646e-15
1.05431e-15
1.54525e-15
2.47938e-16
3.62159e-16
5.818e-17
8.56935e-17
1.34377e-17
1.97852e-17
3.02386e-18
4.422e-18
6.93271e-19
1.02433e-18
1.52708e-19
2.24056e-19
3.4775e-20
5.08626e-20
7.96364e-21
1.17483e-20
1.7542e-21
2.58147e-21
3.84643e-22
5.63102e-22
8.33109e-23
1.22731e-22
1.8288e-23
2.67242e-23
4.15507e-24
6.1191e-24
1.0731e-24
1.58109e-24
3.59038e-25
5.13173e-25
3.08562e-20
1.84329e-19
1.18132e-20
1.16585e-25
1.19789e-25
-1.11728e-42
0
7.61001e-24
-5.88251e-25
0.000243729
0
0.542188
-1.37487e-11
1.31484e-25
0
-7.55521e-27
-1.29222e-27
2.96789e-25
1.5273e-17
-7.31214e-14
-9.15514e-15
-3.72021e-15
1.12856e-16
-7.50877e-25
-7.73762e-28
-8.99011e-30
-2.46924e-32
-1.10439e-35
9.88434e-37
1.48193e-39
7.78267e-43
3.43405e-46
7.38596e-46
0.00720131
2.07327e-25
-7.33987e-09
-5.40985e-09
2.26175e-31
1.01974e-31
0.438881
7.21332e-41
-1.74674e-34
8.43834e-31
-2.86529e-31
2.38092e-31
2.98265e-30
3.91007e-31
7.88409e-30
1.41236e-29
4.92116e-28
3.2313e-27
3.58417e-26
6.03535e-26
1.10917e-25
2.71116e-25
4.52159e-25
0.0312512
0.0198052
1.66014e-25
1.29253e-43
-1.76587e-08
1.06037e-08
-2.18184e-08
4.59536e-25
3.72689e-25
8.37203e-26
8.9329e-26
2.80762e-26
-9.04677e-28
2.84576e-44
0
4.28339e-25
1.73621e-25
9.55997e-26
0.00146142
0.00448608
0.000882407
5.70343e-26
0.430616
4.99927e-27
7.87539e-28
2.30341e-29
2.25556e-45
5.17767e-42
8.72134e-39
5.81067e-36
-1.80704e-34
-1.79409e-31
3.32595e-16
0
3.28274e-05
0.000138033
1.65303e-05
1.1939e-40
0.375616
0
-5.54852e-29
1.70445e-40
2.5978e-37
0
7.39029e-35
1.02022e-16
-3.71973e-33
-4.17492e-30
1.22999e-45
2.21365e-31
1.27271e-29
1.34707e-34
3.7357e-40
-2.86515e-34
-7.26677e-31
-9.87882e-29
-1.26392e-30
0.148005
5.78849e-22
0.267161
0.27147
0.204462
0.282805
0.211743
0.292842
0.222626
0.297689
0.229621
0.29729
0.231976
0.298105
0.231515
0.298733
0.233195
0.298159
0.232803
0.296645
0.232046
0.296342
0.231068
0.296165
0.230912
0.296741
0.230582
0.295136
0.230639
0.295605
0.229775
0.291533
0.229842
0.293202
0.227507
0.295353
0.229663
0.296301
0.231312
0.297879
0.231063
0.296321
0.232064
0.295884
0.230535
0.297294
0.230632
0.298999
0.232396
0.299252
0.233957
0.29849
0.233126
0.29682
0.232261
0.296416
0.231189
0.296222
0.23098
0.29703
0.23068
0.296506
0.231024
0.29885
0.231384
0.299818
0.233694
0.297693
0.233328
0.297292
0.231931
0.297528
0.232704
0.29773
0.23172
0.293416
0.229995
0.294097
0.226565
0.302614
0.230004
0.318563
0.240117
0.327906
0.260591
0.292498
0.222755
0.257024
-1.71752e-10
0
2.7322e-29
5.36502e-41
-1.63565e-30
2.70531e-40
-5.34884e-14
-1.44331e-31
2.39525e-25
3.26828e-43
6.76782e-21
3.11936e-21
4.52453e-31
-1.89172e-27
1.18084e-25
8.78817e-39
5.40311e-25
2.67278e-45
-2.99416e-29
-2.45483e-30
-8.75714e-31
-2.15423e-16
-5.54075e-36
1.79716e-37
5.11925e-38
7.41068e-40
2.97887e-40
8.39747e-25
5.01408e-31
7.39612e-31
2.53469e-18
3.96392e-25
-1.61445e-42
-6.04765e-34
5.91861e-06
-3.43612e-33
3.09984e-38
1.22021e-26
-7.33026e-27
0.283615
-1.84567e-28
6.88337e-30
4.4663e-29
0.0813517
4.07817e-42
1.86764e-42
4.84653e-29
-3.00741e-28
6.5975e-44
1.09757e-43
-2.70782e-42
-1.75411e-27
6.11122e-26
1.8673e-25
1.85901e-25
3.65471e-25
7.63729e-25
1.35926e-24
8.96255e-25
-4.65486e-12
-3.81076e-41
4.42806e-40
0.106872
0.142145
0.0446709
0.0615381
0.0180367
0.0252312
0.00653575
0.00937521
0.00217905
0.0031465
0.000730145
0.00106076
0.000235093
0.000342232
7.875e-05
0.000112986
2.5546e-05
3.71144e-05
8.03383e-06
1.16824e-05
2.52983e-06
3.68039e-06
7.38184e-07
1.08881e-06
2.10348e-07
3.08858e-07
6.13901e-08
9.03503e-08
1.65821e-08
2.4724e-08
4.52768e-09
6.66641e-09
1.26762e-09
1.8638e-09
3.37686e-10
5.00331e-10
8.87097e-11
1.31194e-10
2.37842e-11
3.52441e-11
6.08593e-12
9.06533e-12
1.58583e-12
2.33786e-12
4.14816e-13
6.17098e-13
1.03935e-13
1.53504e-13
2.62048e-14
3.8661e-14
6.15482e-15
9.31341e-15
1.40299e-15
2.07833e-15
3.47311e-16
5.13802e-16
8.17717e-17
1.22023e-16
1.89622e-17
2.80668e-17
4.42636e-18
6.58886e-18
9.99122e-19
1.49159e-18
2.25708e-19
3.33623e-19
5.25382e-20
7.76648e-20
1.18484e-20
1.75836e-20
2.71115e-21
3.99258e-21
5.99988e-22
8.91218e-22
1.30472e-22
1.93042e-22
2.94029e-23
4.3395e-23
7.00851e-24
1.03957e-23
1.92948e-24
2.80828e-24
7.33161e-25
1.04773e-24
8.20333e-31
1.35321e-30
-2.67347e-30
7.41264e-25
1.22818e-24
8.80861e-25
1.23857e-26
9.70668e-26
-6.26661e-10
-5.5164e-10
-7.66264e-34
-5.54975e-35
9.15924e-25
1.46311e-24
-2.51916e-42
-4.1434e-42
-6.18116e-41
-5.70418e-18
-6.93161e-17
6.7508e-18
-5.35133e-13
-2.59292e-12
-2.76675e-13
-2.76011e-28
-1.40089e-27
-1.56982e-28
4.74576e-45
2.49921e-41
3.1168e-06
6.60978e-07
-3.21965e-11
7.66637e-25
8.73007e-36
1.59018e-36
2.3216e-25
-1.41253e-29
1.96202e-26
5.216e-23
6.91343e-25
4.18577e-39
2.89155e-22
8.50342e-45
-4.50957e-15
1.47491e-24
-7.75983e-33
-2.57559e-14
9.91687e-37
-1.99827e-11
1.84965e-23
2.67051e-24
-1.66852e-15
-4.83494e-33
3.53311e-25
-1.19541e-10
-4.56349e-32
2.12125e-18
4.89478e-19
1.7494e-09
-6.61762e-10
7.2234e-38
-9.81192e-34
0.274608
3.34501e-34
0.255123
-5.58633e-33
9.99341e-40
1.61936e-39
2.17902e-30
1.57157e-32
8.14901e-31
3.52252e-30
0.213856
1.14139e-29
1.21077e-24
0.205951
-4.37285e-30
1.68566e-27
0.00577149
1.82754e-25
1.65998e-25
6.20651e-20
3.01662e-19
3.57898e-20
-5.32714e-36
-4.19537e-37
7.99655e-29
5.83464e-44
-7.2777e-37
-8.8512e-36
2.71054e-27
4.36053e-05
2.41677e-05
1.93141e-25
8.4224e-26
0.000276893
0.000165591
1.50042e-32
3.81751e-33
-6.93068e-30
0.216739
5.27726e-34
4.99539e-38
5.78165e-25
2.97396e-25
-2.78113e-27
2.93166e-25
2.62056e-25
1.13981e-37
6.01183e-12
-2.2162e-29
0.134675
0.140838
0.100743
0.144347
0.105012
0.144468
0.10633
0.144141
0.106297
0.14605
0.107013
0.144661
0.107292
0.144718
0.106601
0.1456
0.107388
0.144724
0.107805
0.144761
0.107546
0.145496
0.10748
0.143938
0.107584
0.143793
0.106567
0.144021
0.106751
0.144149
0.106684
0.145467
0.10728
0.143648
0.10687
0.144477
0.105729
0.144391
0.107258
0.144301
0.106511
0.145024
0.106646
0.146716
0.107422
0.144811
0.107551
0.144793
0.106662
0.145631
0.107425
0.144729
0.107824
0.144758
0.107543
0.145527
0.10744
0.144518
0.107471
0.145446
0.106697
0.144824
0.106916
0.144712
0.106713
0.146184
0.107738
0.143865
0.107531
0.141985
0.105705
0.141539
0.10483
0.142382
0.104246
0.149448
0.105651
0.171227
0.115852
0.116843
1.3996e-24
-1.47718e-34
1.52317e-30
-3.917e-37
-2.37656e-30
-2.1434e-32
1.17546e-24
2.57498e-24
6.08281e-27
1.39275e-33
-9.44236e-15
9.38775e-22
5.79833e-42
3.03687e-24
4.92377e-26
-8.11283e-14
-4.41614e-14
0.0826767
-5.46722e-40
-3.63983e-41
9.56257e-30
5.32137e-25
-1.20021e-29
-1.14689e-29
-1.85264e-38
-4.38887e-39
6.07779e-25
8.19522e-21
4.77179e-21
-5.73332e-36
-2.53357e-36
7.21822e-38
4.19875e-39
1.83455e-37
2.57001e-24
0.000821739
0.00357418
8.3442e-43
5.01042e-42
2.46262e-41
3.89757e-42
-5.64762e-28
9.66524e-27
4.02776e-25
9.53658e-25
0.0132127
1.74564e-28
-9.22075e-28
1.1804e-37
0.00133671
0.00144706
-1.18396e-36
0.00719301
0.00444061
0.0210415
5.96315e-25
8.44375e-25
0.111993
0.0798274
2.18671e-25
6.38921e-25
-2.63557e-31
-1.07665e-31
0.0555339
0.024006
0.0338757
0.00867803
0.0127228
0.00275735
0.00411294
0.000909926
0.00134792
0.000311375
0.000457245
0.000102604
0.000150064
3.35287e-05
4.8904e-05
1.09284e-05
1.59667e-05
3.36336e-06
4.95725e-06
9.74886e-07
1.44409e-06
2.81771e-07
4.17532e-07
8.26704e-08
1.2244e-07
2.29556e-08
3.43947e-08
6.19997e-09
9.30695e-09
1.71354e-09
2.55034e-09
4.73411e-10
7.02794e-10
1.26899e-10
1.89986e-10
3.33987e-11
4.99026e-11
8.85163e-12
1.32839e-11
2.26078e-12
3.39849e-12
5.91548e-13
8.81736e-13
1.50496e-13
2.25337e-13
3.75625e-14
5.66796e-14
9.08876e-15
1.36793e-14
2.1142e-15
3.18173e-15
5.10944e-16
7.68696e-16
1.22183e-16
1.82206e-16
2.87846e-17
4.30446e-17
6.7269e-18
1.00812e-17
1.55591e-18
2.34137e-18
3.52488e-19
5.31733e-19
8.07025e-20
1.20725e-19
1.87625e-20
2.79906e-20
4.35388e-21
6.56783e-21
9.58129e-22
1.43234e-21
2.19072e-22
3.29212e-22
4.98256e-23
7.50546e-23
1.24491e-23
1.87288e-23
3.75843e-24
5.79736e-24
1.63697e-24
5.6135e-08
3.18652e-07
2.22997e-08
1.02652e-09
3.48036e-10
1.04856e-39
6.69821e-39
-2.49004e-33
-8.91501e-34
2.7309e-24
4.82648e-24
9.92494e-29
-3.53787e-29
8.12677e-26
3.45077e-25
1.50775e-24
-1.34982e-30
-6.5421e-17
-9.95839e-42
4.34169e-24
2.48416e-24
-1.15374e-37
0.000866513
0.000259024
-2.70087e-36
2.74742e-24
1.7767e-24
3.81049e-25
-3.00468e-28
-5.20773e-27
0.019976
-3.67972e-35
5.73523e-22
1.02509e-22
7.66469e-26
-6.14342e-13
-3.52222e-13
1.82433e-30
2.47585e-30
2.12055e-24
1.25482e-24
6.93612e-29
2.67091e-29
-1.64731e-36
1.415e-08
6.66501e-09
9.55074e-25
-2.1997e-33
-3.65273e-33
2.16626e-33
-1.64371e-11
6.96492e-30
2.99033e-30
-1.47907e-32
-1.23939e-32
2.47974e-32
5.12904e-20
3.95401e-20
0.0948043
0.126165
2.66228e-43
2.50483e-37
2.85824e-28
-6.22698e-42
-9.97859e-42
-1.64276e-41
0.0303787
4.04272e-24
-2.82373e-11
4.02371e-37
-7.85941e-16
-4.47962e-15
-3.87918e-16
0.0750129
0.128743
-6.24361e-30
-1.00773e-29
1.54454e-29
-2.03421e-32
-3.55518e-12
-1.24874e-11
-2.41643e-12
7.64137e-06
-1.90663e-35
-3.09931e-35
-4.72651e-36
3.02071e-30
-2.85744e-29
2.91716e-24
4.54129e-05
0.000147929
2.70209e-05
1.06157e-24
5.11671e-25
-4.38447e-36
-1.46806e-40
-2.38814e-40
1.73514e-39
-2.07199e-17
-2.03478e-18
1.61269e-28
4.70529e-24
1.04195e-31
3.64131e-32
0.0809143
3.96837e-24
-9.80132e-36
1.86027e-24
0.0652972
0.0655799
0.048115
0.0652778
0.0486161
0.0660021
0.0485613
0.065561
0.0485796
0.0657965
0.0486065
0.0661664
0.0488167
0.0663675
0.0489406
0.0667691
0.0493415
0.0661522
0.0494583
0.0663089
0.0486518
0.0661816
0.0492344
0.0660326
0.0491005
0.0656681
0.048773
0.0663119
0.0487294
0.0654791
0.0487934
0.0652191
0.0484948
0.0662326
0.0484917
0.0656329
0.0488664
0.0658074
0.0486961
0.0657731
0.0485787
0.0655071
0.0482996
0.0657677
0.0485306
0.0661521
0.0487884
0.0663545
0.0489298
0.0667416
0.0493336
0.0660601
0.0494304
0.0659976
0.0485335
0.065741
0.0488311
0.0657047
0.048674
0.0659206
0.0489402
0.0667112
0.0492451
0.0659539
0.0493032
0.0651838
0.0489695
0.0641051
0.0481571
0.0629461
0.0468531
0.0634455
0.0458496
0.0706818
0.0550054
0.047539
0.0747243
0.170502
2.10738e-09
2.76113e-27
8.42001e-24
2.83434e-24
-9.05299e-37
4.60558e-24
3.10825e-32
3.09797e-27
4.08353e-37
2.06295e-26
4.49195e-27
0.0349638
-4.9282e-35
8.37641e-37
1.35141e-36
-1.61462e-35
-9.61835e-22
8.17945e-24
1.34236e-23
1.2357e-28
-7.75078e-14
-4.24878e-32
8.96351e-24
1.21706e-23
6.14133e-23
5.8247e-24
-5.66105e-39
4.37715e-06
1.05219e-06
0.103892
-9.06223e-38
-3.28421e-38
0.0600351
-5.43298e-36
-4.40688e-36
3.40423e-28
0.00725662
6.3494e-32
1.00066e-31
2.93477e-30
2.45709e-26
6.04759e-28
0.0235738
5.46149e-24
1.79438e-25
1.51469e-28
5.58856e-28
0.0358487
0.0635147
0.0472965
0.0451071
5.95885e-28
-1.67632e-27
3.31383e-26
1.91758e-24
2.95599e-24
0.0488111
0.0372812
0.0191479
1.73004e-24
7.22709e-24
2.86538e-20
-8.38562e-19
1.54943e-19
1.3299e-24
3.07283e-24
4.54941e-31
2.46137e-31
0.0128951
0.00384839
0.00598794
0.00131116
0.00195414
0.000449981
0.000662895
0.000144526
0.000213478
4.76312e-05
7.07285e-05
1.49717e-05
2.21698e-05
4.63426e-06
6.85999e-06
1.38167e-06
2.08147e-06
4.02101e-07
6.02478e-07
1.17932e-07
1.76375e-07
3.38633e-08
5.13824e-08
9.04973e-09
1.36863e-08
2.57174e-09
3.8879e-09
7.23234e-10
1.09236e-09
1.88269e-10
2.8362e-10
5.07303e-11
7.67659e-11
1.36314e-11
2.06922e-11
3.46076e-12
5.23138e-12
9.3055e-13
1.41924e-12
2.33347e-13
3.54113e-13
5.81929e-14
8.76868e-14
1.46136e-14
2.24595e-14
3.37343e-15
5.18205e-15
8.08885e-16
1.22383e-15
1.95902e-16
3.00879e-16
4.55578e-17
6.92645e-17
1.07019e-17
1.62763e-17
2.56909e-18
3.93342e-18
5.82467e-19
8.84969e-19
1.36401e-19
2.08897e-19
3.19718e-20
4.85787e-20
7.32375e-21
1.10717e-20
1.67491e-21
2.60963e-21
3.80404e-22
5.81602e-22
9.21559e-23
1.40455e-22
2.50722e-23
3.86225e-23
8.3979e-24
1.31925e-23
4.54089e-24
7.90115e-24
4.59791e-24
1.74294e-38
6.67804e-37
1.1436e-33
-1.60678e-34
9.54253e-24
1.44213e-23
-9.75252e-29
9.75808e-28
7.69529e-25
2.13624e-24
-1.3517e-16
-5.28638e-37
9.75991e-10
1.72508e-10
9.2048e-26
1.49588e-26
1.31299e-23
3.25527e-25
1.80608e-25
4.20189e-22
3.71284e-22
1.54802e-23
1.77558e-24
1.00819e-24
1.01868e-32
1.57896e-27
7.92549e-28
-2.56487e-35
0.0427028
-2.16836e-39
-3.28368e-40
-1.5653e-28
2.0857e-08
1.0646e-08
-3.9625e-13
-2.86427e-13
5.11041e-30
7.04314e-06
7.46707e-24
4.98079e-33
-6.97443e-32
1.22866e-23
9.68841e-24
1.02507e-29
-2.75274e-27
2.76057e-24
-7.04762e-20
-2.12721e-20
-5.65081e-40
-3.78502e-41
-9.35576e-40
-1.38288e-15
-7.54785e-16
0.0202998
-8.11669e-33
7.82964e-33
0.00444886
0.00128526
3.7544e-29
2.44369e-28
7.55355e-24
1.29479e-07
5.6288e-07
6.86203e-08
-1.51158e-35
-1.33448e-32
-6.44686e-35
-1.07759e-34
-2.89461e-35
3.78216e-05
2.22299e-05
5.60606e-31
2.31887e-31
-5.07574e-14
-1.11648e-14
3.94433e-39
6.53549e-39
2.84413e-38
8.02896e-11
8.38725e-12
1.21438e-24
6.72685e-29
3.13545e-29
1.45169e-29
3.06071e-30
2.74887e-36
1.8427e-28
0.0292658
0.0289243
0.0210324
0.0286523
0.0206329
0.0288628
0.0204366
0.0288314
0.0206598
0.0289856
0.0205447
0.0292929
0.0207654
0.0289829
0.0207781
0.0285352
0.0203904
0.0292082
0.0204617
0.0291286
0.0209392
0.0289311
0.0207371
0.0287475
0.0206398
0.0287729
0.0204425
0.0288868
0.0205112
0.0286911
0.0206291
0.0287135
0.0203951
0.0291895
0.0206058
0.0289987
0.0210584
0.0289572
0.0207416
0.028911
0.0207287
0.0288141
0.0206757
0.0289694
0.0205312
0.0292805
0.020757
0.0289608
0.0207722
0.0284404
0.0203711
0.0288732
0.0203766
0.0289803
0.0207265
0.0292783
0.0208086
0.0294329
0.021243
0.0292135
0.0210735
0.0292417
0.0210405
0.0283638
0.0210176
0.0271397
0.0200933
0.0260664
0.0190096
1.54315e-36
6.48622e-24
7.3482e-34
1.67221e-31
3.51555e-09
1.42459e-23
1.21479e-27
2.70517e-23
7.9728e-25
4.12356e-06
1.12265e-06
2.35622e-23
1.26113e-23
1.82359e-23
3.0278e-23
2.44737e-23
4.05241e-35
1.54073e-35
1.54255e-23
-4.53631e-27
5.75327e-24
2.43591e-23
6.00898e-24
9.07459e-24
-2.63452e-41
0.00641594
1.94908e-30
8.97622e-31
0.0020352
0.00300644
0.000661058
0.00097245
0.000209626
0.00031212
6.61013e-05
9.76122e-05
2.14006e-05
3.18748e-05
6.57704e-06
9.81532e-06
2.00895e-06
2.99219e-06
5.99597e-07
9.08847e-07
1.74041e-07
2.60332e-07
5.21033e-08
7.80874e-08
1.384e-08
2.13344e-08
3.91431e-09
5.86807e-09
1.12213e-09
1.69821e-09
2.91849e-10
4.48841e-10
7.92095e-11
1.18906e-10
2.19232e-11
3.31325e-11
5.52081e-12
8.49023e-12
1.47171e-12
2.21081e-12
3.82984e-13
5.88955e-13
9.16806e-14
1.39346e-13
2.38442e-14
3.59467e-14
5.67685e-15
8.83974e-15
1.30561e-15
1.9877e-15
3.22681e-16
4.88386e-16
7.77091e-17
1.20183e-16
1.80223e-17
2.71999e-17
4.50769e-18
6.84689e-18
1.02321e-18
1.58974e-18
2.37734e-19
3.59534e-19
5.61239e-20
8.61077e-20
1.26132e-20
1.9111e-20
3.00964e-21
4.48124e-21
7.09204e-22
1.08474e-21
1.76774e-22
2.67407e-22
5.38968e-23
8.19609e-23
2.02053e-23
2.12975e-23
3.36773e-23
-2.27259e-29
6.15843e-29
-8.91705e-13
1.70256e-12
-1.11335e-12
1.18693e-32
4.19438e-33
2.81141e-23
3.83092e-23
2.14818e-27
-7.53282e-27
0.000210108
0.000119231
4.48857e-24
1.02961e-23
2.76027e-23
4.33333e-23
-7.07893e-17
-1.3796e-17
2.43777e-26
1.24629e-24
-4.14996e-41
-2.14564e-40
-6.11998e-41
0.0231439
9.27597e-27
0.0284769
6.0453e-36
2.96157e-36
0.0268739
0.0209495
0.0289555
2.77652e-22
7.81002e-23
4.3159e-23
-3.70487e-29
0.00936655
-9.33841e-25
2.27362e-34
-1.65558e-16
1.69833e-27
9.39079e-28
9.50715e-24
0.0177168
0.0205128
-9.07927e-26
2.69661e-26
7.03804e-06
6.94002e-29
8.33149e-30
2.76783e-08
1.50672e-08
3.15501e-13
1.32275e-30
-2.98736e-32
1.52007e-25
7.41598e-26
-3.91273e-38
0.000749399
-1.41598e-31
2.1231e-30
-4.12479e-28
-4.24326e-28
2.66383e-29
-1.09299e-37
-1.28867e-40
3.10972e-23
-2.13955e-39
-2.81494e-19
-6.8824e-15
0.0273063
0.0196329
0.0172336
-8.43818e-16
-6.15376e-16
1.41045e-28
0.0112679
0.00889225
0.00421652
-1.31578e-18
-5.4069e-19
6.41269e-30
1.13664e-29
1.87813e-32
2.9575e-32
-2.32112e-31
5.55721e-28
1.95863e-27
6.68883e-32
1.85816e-09
4.10674e-10
-2.43937e-34
1.58802e-07
8.70724e-08
3.51429e-27
1.14594e-23
8.70604e-24
4.91961e-23
8.86585e-31
2.4526e-31
3.39252e-05
2.10322e-05
2.63763e-24
7.64667e-38
2.46554e-36
-1.37335e-19
-2.42281e-20
1.57982e-38
2.64973e-38
1.23571e-37
3.71314e-26
1.69838e-29
1.12422e-28
1.07783e-13
-2.0086e-15
4.13337e-24
-3.34898e-38
4.53566e-23
7.04778e-24
1.81866e-23
8.43533e-27
2.48367e-26
7.92821e-27
0.012334
-6.10561e-29
-8.61434e-29
0.0121883
0.00883712
0.0120701
0.00869918
0.0121786
0.00868348
0.0121854
0.00875542
0.0122308
0.00871584
0.0121008
0.00868361
0.012014
0.00861833
0.0121932
0.00866354
0.0122766
0.0087576
0.0122631
0.00876026
0.0121648
0.00875613
0.0120882
0.00871704
0.0121395
0.00861283
0.0121875
0.00872895
0.0121444
0.008784
0.0123357
0.00875415
0.0124163
0.00879139
0.0120671
0.00876511
0.0121807
0.00853842
0.0122028
0.00874757
0.0121761
0.00876437
0.0122204
0.00871232
0.0121002
0.0086793
0.0120058
0.00862239
0.0121561
0.0086596
0.0122096
0.0087262
0.0122713
0.00873844
0.012568
0.00884658
0.0123342
0.00900976
0.0124072
0.00889262
0.0121689
0.00896061
0.0115119
0.00864376
0.010759
0.0074172
0.00818118
2.0758e-30
1.46728e-23
0.0121831
1.27653e-33
5.2429e-23
6.29275e-07
-3.98904e-34
5.34161e-30
2.05418e-30
-3.86544e-35
3.25263e-37
1.91298e-29
1.01307e-29
1.50362e-28
9.03203e-28
-1.06642e-27
-6.50528e-39
3.30496e-25
8.70237e-24
2.32045e-23
8.60098e-23
-6.16793e-35
8.95231e-36
1.59347e-36
-3.68651e-39
-3.88908e-15
-5.61307e-15
-2.83175e-15
1.57179e-32
7.1606e-33
1.04242e-29
1.8818e-23
8.3739e-23
9.65668e-23
1.38124e-22
0.00256212
0.00380942
-8.1986e-34
-9.44987e-35
0.000887314
0.00129552
0.000290626
0.00042918
9.57069e-05
0.000141521
3.07019e-05
4.51118e-05
9.7369e-06
1.4433e-05
3.01804e-06
4.52226e-06
9.10858e-07
1.35542e-06
2.7786e-07
4.1876e-07
7.91023e-08
1.18466e-07
2.15495e-08
3.25392e-08
6.27034e-09
9.54044e-09
1.76327e-09
2.6488e-09
4.81916e-10
7.33977e-10
1.28168e-10
1.96815e-10
3.42562e-11
5.17768e-11
9.02974e-12
1.37155e-11
2.42376e-12
3.71243e-12
6.30695e-13
9.56031e-13
1.552e-13
2.39678e-13
3.88263e-14
5.92375e-14
9.43209e-15
1.43135e-14
2.28635e-15
3.55694e-15
5.39642e-16
8.28045e-16
1.3267e-16
2.00273e-16
3.1981e-17
4.96099e-17
7.63714e-18
1.16124e-17
1.82545e-18
2.77499e-18
4.31582e-19
6.70564e-19
9.95044e-20
1.51444e-19
2.29596e-20
3.55114e-20
5.31641e-21
8.25381e-21
1.28247e-21
1.93583e-21
3.39112e-22
5.09999e-22
1.12216e-22
1.59906e-22
7.68838e-30
7.93053e-29
-1.0285e-26
5.24203e-25
0.000157743
9.3492e-05
2.05814e-23
2.93161e-23
8.46516e-23
1.54714e-22
-7.94366e-18
2.94005e-24
1.39139e-23
0.0124195
0.00872856
-8.58764e-34
2.41482e-28
-1.53255e-28
-1.91565e-16
1.27844e-35
-3.28281e-19
3.29586e-23
2.4437e-28
-2.53788e-28
0.00891688
5.14576e-23
5.28173e-23
-1.06791e-27
-3.124e-28
4.2508e-06
2.26336e-29
3.6663e-29
2.75359e-29
-7.26268e-24
2.19953e-12
-9.9323e-17
-1.31502e-23
2.1287e-31
1.21808e-06
4.08941e-27
-1.68667e-27
1.19618e-29
6.77199e-38
7.43964e-13
1.10862e-30
9.27616e-35
0.00863338
0.0118787
8.87432e-23
0.00533543
4.49693e-23
3.64214e-23
-4.87954e-32
5.3699e-25
1.40831e-25
1.31352e-22
7.16717e-23
-1.37014e-34
-2.20326e-34
-1.37357e-33
0.000826672
1.35916e-22
4.64702e-24
5.01918e-30
1.90147e-29
7.36294e-32
7.63847e-27
4.43644e-34
-1.57348e-18
0.000490736
0.0105943
0.00785805
0.0041736
8.73441e-32
0.00259327