/*--------------------------------*- C++ -*----------------------------------*\
  =========                 |
  \\      /  F ield         | OpenFOAM: The Open Source CFD Toolbox
   \\    /   O peration     | Website:  https://openfoam.org
    \\  /    A nd           | Version:  7
     \\/     M anipulation  |
\*---------------------------------------------------------------------------*/
FoamFile
{
    version     2.0;
    format      ascii;
    class       volScalarField;
    location    "0.9";
    object      T;
}
// * * * * * * * * * * * * * * * * * * * * * * * * * * * * * * * * * * * * * //

dimensions      [0 0 0 1 0 0 0];

internalField   nonuniform List<scalar> 
5936
(
0.509388
0.913124
0.999003
0.982342
1.00586
1.01594
1.00206
1.00701
1.00021
1.00101
0.999887
0.999757
0.99995
0.999843
0.999998
0.999979
1
1
0.999999
0.999998
0.999999
0.999996
0.999999
0.999998
1
1
1
1
1
1
1
1
1
1
1
1
1
1
1
1
1
1
1
1
1
1
1
1
1
1
1
1
1
1
1
1
1
1
1
1
1
1
1
1
1
1
1
1
1
1
1
1
1
1
1
1
1
1
1
1
1
1
1
1
1
1
1
1
1
1
1
1
1
1
1
1
1
1
1
0.116255
-0.00308433
-0.000220626
4.08817e-05
-3.12618e-07
4.17018e-07
-4.23753e-09
-1.40026e-08
2.90362e-09
-1.0819e-11
-6.94725e-11
1.1319e-11
-5.72074e-13
-1.47745e-13
5.8153e-14
-8.72655e-15
-2.55597e-16
4.62503e-16
-5.57318e-17
-4.72404e-18
3.62595e-18
-1.14657e-19
-1.19429e-19
-4.86715e-21
-1.92828e-37
6.52532e-21
3.54014e-20
8.18628e-18
3.70309e-17
8.39069e-16
-1.69468e-14
-1.72767e-13
9.74717e-14
-5.56577e-12
-1.11879e-10
-5.82158e-10
4.88907e-09
2.06216e-08
2.97396e-08
-9.93684e-07
-4.03564e-06
2.35508e-05
-9.96465e-05
0.000237294
-0.000194375
0.00123097
-0.00515365
-0.00687317
0.0309099
0.10395
1
1
1
1
1
1
1
1
1
1
1
1
1
1
1
1
1
1
1
1
1
1
1
1
1
1
1
1
1
1
1
1
1
1
1
1
1
1
1
1
1
1
0.999996
0.999998
0.999991
0.999992
1.00001
1
1.00004
1.00003
1.00002
1.00003
0.999929
0.999965
0.999851
0.999885
0.999881
0.999871
1.00006
0.999977
1.00057
1.00037
1.00144
1.00114
1.00193
1.00179
1.0005
1.00105
0.994876
0.996791
0.982489
0.986561
0.960864
0.968074
0.927014
0.937908
0.880919
0.89561
0.82244
0.84168
0.753736
0.77607
0.679527
0.703133
0.595352
0.62112
0.509144
0.534845
0.415266
0.443344
0.333404
0.359169
0.25905
0.279896
0.175823
0.116153
0.191149
3.61164e-21
0.0651498
0.0134562
-0.00159039
6.86186e-05
7.16026e-06
1.01484e-07
1.83366e-07
-3.61297e-08
7.26638e-10
1.14103e-09
-1.85686e-10
2.08994e-12
3.62527e-12
-7.48415e-13
8.30237e-14
6.25654e-15
-4.69211e-15
8.61349e-16
5.77211e-17
-3.42116e-17
4.83231e-18
9.98118e-19
-2.34164e-19
-3.7759e-20
-0.000922382
5.16099e-21
0.0767228
-5.47563e-20
-6.28811e-19
-2.00698e-17
-3.68915e-16
3.23031e-15
4.93547e-14
3.67821e-13
-5.03012e-13
2.61916e-11
3.90913e-10
-5.28271e-10
-1.57202e-08
3.50704e-09
-4.40132e-08
3.41538e-06
-5.52629e-06
1.26293e-05
-4.61887e-05
0.000113498
2.85162e-05
-0.000536473
-0.00901485
0.0141422
0.000131136
0.0664675
1.98391e-06
0.457247
0.0001441
3.03963e-05
6.54724e-07
5.36432e-07
-9.96369e-08
6.91217e-10
3.44623e-09
-4.95718e-10
-5.17122e-12
1.10809e-11
-2.05243e-12
1.94955e-13
2.22287e-14
-1.31759e-14
2.24654e-15
2.00207e-16
-9.86513e-17
1.40169e-17
3.24989e-18
-7.5986e-19
-1.3176e-19
6.79787e-21
-1.81778e-19
-1.67294e-17
-2.56094e-16
1.59593e-15
1.3957e-14
1.41456e-13
-3.05006e-14
2.36247e-11
3.36361e-10
-1.01107e-10
-1.21964e-08
1.12504e-08
-6.77154e-08
2.3433e-06
-3.04465e-06
5.35585e-06
-3.37061e-05
0.000120198
0.000149253
-0.00109122
-0.00889123
0.0160112
-4.137e-20
1.14995e-06
4.36534e-09
-4.1844e-08
7.51539e-09
1.18577e-10
-2.1522e-10
2.843e-11
-1.00105e-12
-4.71825e-13
1.58236e-13
-2.25126e-14
-1.00146e-15
1.3986e-15
-1.45603e-16
-1.37779e-17
1.09345e-17
-2.82002e-19
-4.03248e-19
-1.97571e-20
6.11495e-18
1.60008e-17
7.91148e-16
-8.94061e-15
-5.91641e-14
1.698e-13
-6.52524e-12
-9.19303e-11
-5.72803e-10
3.2366e-09
1.70211e-08
1.66162e-09
-6.18206e-07
-3.02698e-06
1.93093e-05
-8.26803e-05
0.000195996
-0.000101901
0.000910846
-0.00568065
-0.00457174
0.036548
-0.0055644
-0.00532448
2.32044e-20
0.596807
-0.00118086
0.957427
1.0026
0.985737
1.00456
1.0082
1.00136
1.00401
0.999967
1.00053
0.999869
0.999794
0.999989
0.999958
1.00002
1.00005
1.00001
1.00003
1
1.00001
0.999998
0.999998
0.999999
0.999998
1
1
1
1
1
1
1
1
1
1
1
1
1
1
1
1
1
1
1
1
1
1
1
1
1
1
1
1
1
1
1
1
1
1
1
1
1
1
1
1
1
1
1
1
1
1
1
1
1
1
1
1
1
1
1
1
1
1
1
1
1
1
1
1
1
1
1
1
1
1
1
5.78912e-20
0.00151943
6.23973e-05
0.260823
-5.70122e-06
5.2064e-08
2.91934e-07
-5.98093e-08
1.7215e-09
1.47095e-09
-2.64927e-10
1.50075e-11
3.67994e-12
-1.23165e-12
1.8076e-13
3.4695e-15
-8.57661e-15
1.32891e-15
5.57828e-17
-6.23588e-17
8.78485e-18
2.47017e-18
-2.21548e-19
-8.0594e-20
6.40738e-18
-0.00316853
-0.00458952
-0.0032785
-1.89195e-21
0.110314
0.163983
-3.68932e-06
-8.98206e-06
-1.32075e-06
0.532986
2.37147e-18
1.35018e-15
-1.25837e-14
-8.51132e-14
9.1137e-14
-5.70184e-12
-9.80703e-11
-9.31834e-10
3.33908e-09
3.12924e-08
-1.0363e-08
-5.70932e-07
-5.86127e-06
2.92622e-05
-0.000122317
0.000302346
-0.000137229
0.00104536
-0.00915292
0.000846376
0.0513867
0.0977306
0.0517236
0.189634
0.0225263
-9.55505e-05
-0.000690296
4.39733e-05
1.58816e-05
-6.93586e-06
1
1
1
1
1
1
1
1
1
1
1
1
1
1
1
1
1
1
1
1
1
1
1
1
1
1
1
1
1
1
1
1
1
1
1
1
1
1
1
1
0.999996
0.999998
0.999992
0.999991
1.00001
0.999999
1.00004
1.00003
1.00001
1.00003
0.999933
0.999971
0.99988
0.999899
0.999909
0.999875
1.00005
0.999918
1.00054
1.00027
1.00141
1.00111
1.00183
1.00194
1.00035
1.00157
0.994617
0.997947
0.982247
0.988678
0.961078
0.971434
0.927627
0.943284
0.882054
0.902584
0.825809
0.850695
0.758895
0.788569
0.683002
0.71406
0.597711
0.630182
0.510408
0.542014
0.419164
0.450392
0.345089
0.376942
0.780431
-5.7643e-20
0.830481
9.5759e-21
1.10704e-13
2.8057e-13
4.15287e-05
4.6549e-19
-5.16616e-20
3.95894e-13
7.6824e-07
-1.96668e-08
-2.12186e-08
4.30592e-09
-1.12816e-10
-7.85149e-11
1.78154e-11
-1.73707e-12
-1.27892e-13
9.64507e-14
-1.67783e-14
-5.66926e-16
7.00718e-16
-1.04952e-16
-8.71231e-18
6.98262e-18
2.99022e-19
-1.73163e-19
7.2674e-18
9.86948e-15
1.98057e-14
-2.9098e-16
-2.51467e-16
-2.56394e-17
1.13137e-15
-2.27997e-17
7.4348e-16
-4.67845e-14
1.42716e-06
-7.56118e-13
2.40153e-11
4.27998e-10
4.41532e-10
-1.60344e-08
5.17048e-09
-1.66537e-07
3.32111e-06
1.83309e-07
-1.37751e-05
2.29677e-05
5.50083e-05
0.000413025
-0.00303181
-0.0104149
0.0351042
-1.15585e-07
2.92637e-13
-2.82023e-12
9.17948e-20
1.31409e-11
0.263332
-2.51166e-12
-0.000265645
-0.00879783
0.000992412
-8.00053e-05
0.000268809
-0.000112574
2.63922e-05
-4.50419e-06
-6.70337e-07
-1.46538e-08
2.70893e-08
3.51505e-09
-2.30277e-19
-3.56206e-19
7.3201e-18
1.30057e-17
-1.54227e-16
3.58933e-16
2.09256e-15
-2.20815e-14
3.95954e-14
0.0357504
-0.0111798
-0.0025345
0.000346229
0.000120766
-1.41655e-05
-3.03864e-06
-1.88159e-06
3.00913e-06
-1.09032e-07
1.23444e-08
-1.55096e-08
2.55051e-10
4.47281e-10
3.12476e-11
1.58638e-15
-4.36564e-19
1.46316e-18
1.68129e-17
-3.9672e-17
-1.77504e-16
1.73661e-15
-4.51934e-15
-3.06911e-14
2.40965e-13
-6.7051e-13
-1.93826e-12
3.71272e-11
-2.3677e-10
3.89295e-10
8.41331e-09
-6.17559e-08
7.19385e-08
-2.35962e-13
-4.99891e-10
4.34428e-09
-5.18542e-09
8.47417e-07
6.4292e-18
-8.74557e-10
-1.08291e-14
-1.15972e-10
-8.24473e-12
8.0514e-05
1.77752e-13
0.994132
1.00615
1.00363
1.00319
1.00652
1.00017
1.00137
0.999567
0.999319
0.99981
0.999466
0.999986
0.999885
1.00002
1.00003
1.00001
1.00003
1
1
0.999999
0.999998
0.999999
0.999998
1
1
1
1
1
1
1
1
1
1
1
1
1
1
1
1
1
1
1
1
1
1
1
1
1
1
1
1
1
1
1
1
1
1
1
1
1
1
1
1
1
1
1
1
1
1
1
1
1
1
1
1
1
1
1
1
1
1
1
1
1
1
1
1
1
1
1
6.36159e-15
3.09084e-11
-1.26375e-09
0.300157
-1.1381e-17
-1.10714e-12
-1.26157e-12
8.40353e-07
5.41114e-07
1.6514e-06
-5.1545e-08
-1.60371e-08
4.05657e-09
0.0107516
-3.57835e-10
0.206565
-4.12316e-11
3.72423e-11
8.47133e-19
1.16836e-12
-2.74784e-12
-4.20624e-12
-3.35137e-12
0.0659148
2.37256e-13
-8.19891e-16
-7.79344e-15
1.58781e-15
-1.74035e-17
-8.17785e-17
7.8177e-18
3.53056e-18
-3.64602e-06
-7.59847e-07
8.3179e-10
-2.14248e-10
-3.2773e-17
-9.927e-18
3.3365e-13
7.03392e-13
-6.74876e-13
1.65509e-15
-1.00665e-10
-2.81959e-14
-6.45715e-15
2.09091e-14
-1.8766e-16
1.41606e-15
0.000171361
0.000193265
3.16912e-11
-1.1792e-10
-1.21309e-14
-1.75588e-15
4.90322e-10
5.05967e-10
-1.15691e-09
2.19522e-09
4.44381e-08
-4.8282e-08
-3.39096e-07
-7.34673e-06
3.19144e-05
-0.000137784
0.000354769
-1.60719e-05
0.000466295
-0.0123424
-0.0105972
0.00527199
2.42673e-07
2.55146e-08
1
1
1
1
1
1
1
1
1
1
1
1
1
1
1
1
1
1
1
1
1
1
1
1
1
1
1
1
1
1
1
1
1
1
1
1
1
1
0.999997
0.999999
0.999992
0.999992
1.00001
0.999998
1.00003
1.00002
1.00001
1.00002
0.999953
0.999982
0.999913
0.999928
0.99991
0.999885
0.999967
0.999865
1.0004
1.00016
1.00128
1.00098
1.00184
1.00191
1.00075
1.00181
0.995739
0.998935
0.984718
0.990695
0.965254
0.974786
0.934113
0.949215
0.89174
0.911329
0.838506
0.863692
0.77395
0.803156
0.697679
0.729471
0.60723
0.640985
0.514967
0.543237
0.425147
0.453431
-2.702e-10
-5.99177e-10
-1.79509e-10
0.130992
0.195974
-2.50846e-16
1.00421e-19
4.36707e-11
1.77303e-11
-0.00209076
5.29142e-19
0.92558
7.76872e-07
0.299304
6.87735e-20
-5.08767e-13
6.77934e-15
0.0559217
3.10816e-09
-1.24357e-07
-6.16001e-08
-5.5453e-08
3.90174e-09
9.3149e-12
4.40891e-13
1.01436e-13
-1.92975e-14
2.9695e-16
6.52631e-16
-1.50572e-16
-1.45806e-17
7.70204e-18
5.00678e-18
0.00947254
0.12466
-1.09001e-05
-1.1325e-05
8.46636e-10
1.16161e-09
0.959572
-2.0968e-16
-7.20298e-12
8.40927e-09
-9.56571e-10
-1.70939e-08
-4.13449e-08
-1.71677e-08
-2.07531e-07
3.43281e-06
4.73922e-06
-3.63064e-05
8.16604e-05
2.37146e-05
0.000680618
-0.00572257
-0.011978
0.0767339
0.0425133
0.357791
7.41142e-18
8.82705e-07
2.95549e-05
-1.961e-05
-0.0120829
0.000624062
1.31338e-05
0.000329689
-0.000132789
3.01976e-05
-2.78914e-17
9.31919e-18
-0.00497342
0.000592861
0.000113376
-0.00337853
0.000562474
-0.00375685
2.81576e-05
0.684452
-2.0386e-05
1.60912e-06
3.32707e-06
1.72263e-17
-6.19964e-17
-2.56583e-16
1.76256e-15
-2.97106e-15
-3.25509e-14
-1.45601e-09
7.36738e-19
-0.000220651
-0.000990867
0.000205258
1.0405e-15
0.78693
5.55883e-19
2.7656e-13
-2.04484e-16
2.51438e-16
2.89871e-18
2.79178e-15
8.09416e-09
-2.17889e-14
4.56115e-14
6.1555e-18
2.52517e-09
-1.55893e-07
3.5256e-11
-1.06313e-14
-9.59005e-12
3.83247e-08
-5.86731e-06
-5.50729e-07
0.322933
-6.17066e-12
1.0091
1.00853
1.01706
1.00223
1.00742
0.999796
1.00081
0.999654
0.999394
0.999897
0.999686
1.00001
0.999964
1.00002
1.00003
1.00001
1.00002
0.999999
1
0.999999
0.999998
1
0.999999
1
1
1
1
1
1
1
1
1
1
1
1
1
1
1
1
1
1
1
1
1
1
1
1
1
1
1
1
1
1
1
1
1
1
1
1
1
1
1
1
1
1
1
1
1
1
1
1
1
1
1
1
1
1
1
1
1
1
1
1
1
1
1
-2.37685e-06
1.23906e-18
-2.1702e-07
-9.92214e-17
5.7268e-08
-1.04808e-15
-6.88541e-08
-1.11657e-14
0.256923
8.27438e-19
-2.31889e-10
-1.20116e-10
3.006e-10
-1.18671e-12
0.000155559
-5.4716e-17
0.0869812
2.49672e-18
2.38977e-13
8.14461e-14
2.25322e-14
-5.80202e-09
1.08174e-15
5.94037e-16
2.30107e-16
-1.73203e-16
-2.40101e-16
-0.00921204
1.89474e-09
5.89441e-10
3.34546e-09
0.167576
-1.93875e-17
-7.55404e-12
0.000166277
-9.95155e-11
-2.07653e-15
-3.14585e-12
-3.4494e-12
0.873027
-8.17752e-06
-8.77331e-08
-1.83079e-07
0.211792
-2.71331e-17
-1.23111e-17
3.45732e-06
-6.71373e-06
-4.03431e-17
-3.23541e-17
-3.14306e-17
3.08837e-05
-0.000142525
9.30829e-05
1.77253e-05
0.000788308
-0.000719016
-0.00832741
-0.00801405
7.49263e-07
1.85309e-15
4.77023e-16
1
1
1
1
1
1
1
1
1
1
1
1
1
1
1
1
1
1
1
1
1
1
1
1
1
1
1
1
1
1
1
1
1
1
1
1
0.999998
1
0.999992
0.999993
1
0.999996
1.00003
1.00002
1.00001
1.00002
0.999973
0.999994
0.999937
0.999955
0.999898
0.999895
0.999882
0.999812
1.0003
1.00006
1.00119
1.00085
1.00188
1.00183
1.00117
1.00205
0.997011
0.999775
0.987453
0.992882
0.969467
0.978922
0.941015
0.955184
0.902843
0.921924
0.853484
0.878352
0.790649
0.820277
0.712787
0.745792
0.617073
0.654275
0.514531
0.547237
0.413152
0.435518
-1.67578e-08
-1.65452e-08
5.00561e-08
0.023568
0.0189703
0.0744123
-6.33971e-05
-0.000143089
-1.06098e-05
-9.1272e-06
-6.00583e-15
-1.19763e-15
-0.0154363
-0.010116
-7.29214e-17
-1.55638e-16
1.63073e-15
6.18051e-09
6.51483e-09
7.98316e-09
1.39651e-07
6.02423e-07
-2.46419e-08
7.42883e-14
-4.78182e-13
4.02042e-13
6.08211e-18
-9.48692e-17
0.000386236
0.000200572
9.16649e-07
0.261185
3.17034e-15
1.66784e-15
0.377735
2.48033e-13
-4.58337e-05
3.86546e-11
0.141526
-2.87436e-16
5.75856e-11
6.54263e-18
-4.75352e-08
-0.0155239
-1.91496e-14
-1.04024e-07
1.76911e-15
1.57948e-06
4.35902e-11
1.51275e-11
-3.21662e-08
-1.90053e-14
0.361594
1.45869e-07
-3.57295e-14
2.03155e-09
2.65212e-10
-8.35045e-06
-1.99214e-05
-1.87982e-12
-9.20271e-12
0.97501
3.706e-11
0.658389
-1.08565e-10
-1.2766e-14
-1.1411e-14
-1.90602e-08
-1.56771e-09
1.48489e-09
-5.19136e-09
0.739487
-7.8783e-08
-0.000512981
1.00093
-1.31719e-07
1.0259e-05
0.0211096
0.00040115
0.000166012
-4.87188e-10
-6.21986e-10
-5.91332e-10
6.81344e-13
-1.63757e-12
3.37007e-06
1.00481e-17
6.51414e-14
1.04807e-12
6.62334e-06
-0.00115442
-0.000199005
-9.42072e-13
-5.34484e-12
-0.00506771
-0.00383963
5.48755e-10
5.19841e-10
-3.37848e-07
0.91765
3.80929e-11
-1.12343e-14
0.00072438
0.000123208
3.04218e-05
0.000386541
0.000185128
-8.17072e-15
-8.0903e-06
1.05932e-07
1.00927
1.00429
1.00996
1.0005
1.00288
0.999622
0.999815
0.999768
0.999512
0.999959
0.999821
1.00002
1
1.00001
1.00003
1
1.00001
0.999999
0.999999
0.999999
0.999998
1
0.999999
1
1
1
1
1
1
1
1
1
1
1
1
1
1
1
1
1
1
1
1
1
1
1
1
1
1
1
1
1
1
1
1
1
1
1
1
1
1
1
1
1
1
1
1
1
1
1
1
1
1
1
1
1
1
1
1
0.705216
0.308892
-3.58876e-15
-2.32169e-09
1.8522e-15
2.199e-13
-1.81421e-14
0.17859
0.267477
1.70502e-05
4.22346e-11
-8.64902e-08
-1.59792e-10
-1.56222e-16
-0.0179356
-9.78025e-05
6.13039e-09
-1.1517e-07
0.323259
-1.09147e-17
-2.16685e-16
-4.90322e-08
0.000404455
2.2966e-13
4.50246e-13
6.72567e-16
3.55488e-16
0.00045107
-5.19412e-10
-4.97606e-10
1.88813e-15
3.77188e-15
1.87015e-14
-1.46937e-14
-1.85333e-14
-0.00286578
-0.0092957
0.00117501
-4.31389e-17
-9.52057e-17
-2.18305e-16
-1.0336e-16
-8.63807e-06
1.21655e-05
0.000252145
0.000447944
0.0676589
3.43186e-06
-7.49464e-06
3.4893e-14
-0.00541554
0.000585025
-5.94867e-14
0.0712045
0.0315684
0.109768
4.29866e-05
0.000395563
0.882953
0.720368
-0.000135422
0.000171746
5.16386e-14
1.23511e-15
1
1
1
1
1
1
1
1
1
1
1
1
1
1
1
1
1
1
1
1
1
1
1
1
1
1
1
1
1
1
1
1
1
0.999999
1
0.999992
0.999993
1
0.999995
1.00002
1.00001
1.00001
1.00002
0.99999
1.00001
0.999959
0.99998
0.999894
0.99991
0.999823
0.999773
1.0002
0.999969
1.00106
1.0007
1.00184
1.00169
1.00152
1.00214
0.998269
1.00056
0.990202
0.995214
0.974191
0.983055
0.949119
0.962373
0.915497
0.933975
0.870156
0.894237
0.809832
0.840085
0.729857
0.766484
0.630111
0.671615
0.518633
0.562037
0.393066
5.27704e-05
0.000174644
1.24349e-05
-1.54547e-05
-1.96931e-05
-1.93657e-15
-1.34766e-14
-1.67609e-14
-1.40358e-14
-0.013784
-0.0185927
-2.10318e-07
-1.76536e-07
-2.33858e-12
-0.000149214
5.56919e-12
1.90533e-13
2.09144e-09
6.32764e-17
-0.0124984
0.0462264
1.94018e-15
-0.0110106
-0.00772794
2.08149e-14
0.438026
0.123463
0.280449
2.86927e-05
2.52335e-05
0.18927
9.40576e-16
-3.93878e-11
2.64702e-11
-7.58638e-05
4.95304e-07
2.64226e-07
2.60499e-09
-1.20311e-09
0.000667697
0.000647659
-1.15698e-07
-1.27708e-07
-3.5662e-12
1.66211e-05
-1.37105e-05
0.000161104
-6.61298e-12
-9.9088e-12
4.11893e-11
-5.9107e-07
-1.50003e-08
-1.41088e-08
-3.47093e-14
-9.23087e-11
-1.40599e-09
-2.50821e-10
-9.12867e-10
1.00726
0.992244
-4.45218e-17
6.01624e-14
3.38974e-06
-3.03044e-17
-5.11527e-17
-4.43821e-17
0.239597
-0.00226554
-5.03945e-06
6.57816e-14
-3.45438e-08
-9.43402e-08
-1.41789e-08
1
1
7.09539e-08
6.34321e-08
-2.55885e-08
-1.10093e-10
1.07567e-06
1.14924e-06
1.21499e-06
-0.000322716
1.10479e-12
1.5419e-12
-3.15899e-12
-6.985e-13
-2.28359e-14
-0.00165749
-0.00301171
-0.00762379
-0.00187655
1.0867e-11
2.24041e-12
-9.68445e-14
1.97229e-15
1.8372e-15
-4.71652e-17
1.06861e-08
6.70596e-09
-1.95641e-07
-0.00646268
5.62319e-10
5.53741e-10
0.926392
0.040489
1.09183e-14
0.000111002
1.00652
1.0016
1.0051
0.999788
1.00058
0.99964
0.999493
0.999871
0.999658
1
0.999934
1.00002
1.00003
1.00001
1.00002
1
1
0.999999
0.999998
0.999999
0.999998
1
1
1
1
1
1
1
1
1
1
1
1
1
1
1
1
1
1
1
1
1
1
1
1
1
1
1
1
1
1
1
1
1
1
1
1
1
1
1
1
1
1
1
1
1
1
1
1
1
1
1
1
1
1
1
0.461913
1
-6.69971e-06
1.29224e-05
-0.018533
0.123913
2.46977e-15
-1.59993e-05
1.74389e-14
-2.86127e-12
-1.04102e-14
2.26399e-05
1.70882e-05
0.441637
-1.46455e-14
9.93614e-14
9.49593e-14
-4.80888e-14
-5.15306e-10
-0.00599546
-0.0172993
-2.80021e-13
2.81751e-07
-9.36169e-11
0.00821312
3.80555e-11
6.9574e-11
3.58338e-11
8.37617e-16
0.000193266
0.000256987
0.480209
2.05396e-15
2.27304e-15
0.980044
-1.93154e-15
2.15935e-15
-1.71151e-07
0.145562
-1.76796e-09
-1.59776e-09
2.01716e-09
-5.45961e-12
-2.4998e-12
0.380168
0.183373
4.72723e-12
-1.5694e-07
-1.84661e-07
1
1.0092
1.01154
1.00152
3.09136e-06
-8.73911e-06
1.74594e-05
0.000490123
0.000237909
0.811422
0.898621
0.516607
0.00060652
4.30601e-05
2.31024e-09
6.74493e-09
7.87503e-10
0.000357997
0.000508885
1.70709e-13
1.1509e-13
1
1
1
1
1
1
1
1
1
1
1
1
1
1
1
1
1
1
1
1
1
1
1
1
1
1
1
1
1
1
1
0.999994
0.999995
0.999999
0.999994
1.00002
1.00001
1.00001
1.00002
1
1.00001
0.99998
1
0.999899
0.999928
0.999784
0.999758
1.00011
0.999912
1.00089
1.00054
1.00171
1.00147
1.00169
1.00203
0.999249
1.00105
0.992811
0.996954
0.979249
0.986805
0.957779
0.970135
0.929454
0.945846
0.888654
0.911388
0.8294
0.858996
0.751603
0.786782
0.652306
0.696173
0.536621
0.586738
0.311368
0.280312
0.405426
-1.7697e-14
-2.1443e-14
-2.37604e-14
-3.44935e-14
-0.0185289
0.00186223
2.99353e-07
3.03955e-06
-0.000110244
0.000274137
-1.68744e-08
4.2326e-15
-2.20234e-05
-1.43011e-05
-2.56225e-12
-3.38905e-12
-0.00520372
-0.000107701
-0.000129019
-8.73298e-10
-4.17658e-10
-0.0202232
3.02153e-11
2.29847e-11
-2.66739e-14
-2.23189e-12
-1.63483e-12
-1.10795e-14
0.227186
5.8758e-16
6.18195e-17
6.3589e-08
8.02064e-05
3.26367e-05
1.05772e-06
9.21169e-07
-4.62e-09
-0.00126084
0.0751877
4.25541e-11
-8.64199e-11
0.0617923
0.158225
2.8077e-13
-7.59844e-06
0.000601375
1.25229e-09
-7.74984e-11
1.98589e-15
2.11923e-16
1.88844e-15
-7.69645e-08
-6.5762e-08
1
-5.90727e-12
4.16376e-11
0.0898452
0.017623
-8.55204e-08
-1.47864e-07
0.456882
0.000143365
0.000315527
9.11758e-05
-5.50112e-12
-8.58087e-12
1.42786e-12
1.73832e-12
-4.96572e-12
-0.00493101
-0.00382035
5.09851e-10
4.8829e-10
3.66856e-08
-7.36867e-08
-2.9828e-15
-8.68261e-16
-1.67792e-14
-1.27377e-05
-4.04009e-06
-0.000131611
2.46302e-13
-9.45668e-09
-7.15874e-09
3.81151e-13
-2.36761e-15
-1.41051e-12
1.00315
1.00032
1.00206
0.999611
0.999788
0.999759
0.999524
0.999949
0.99981
1.00002
0.999991
1.00002
1.00003
1
1.00001
0.999999
1
0.999999
0.999998
1
0.999999
1
1
1
1
1
1
1
1
1
1
1
1
1
1
1
1
1
1
1
1
1
1
1
1
1
1
1
1
1
1
1
1
1
1
1
1
1
1
1
1
1
1
1
1
1
1
1
1
-7.41851e-15
0.000547927
-2.68302e-14
1.16164e-13
2.09627e-05
0.34208
-1.18842e-07
-0.0235884
-0.000166455
-0.000373861
0.000169748
0.108096
0.431731
0.222517
0.203245
0.319518
-1.44067e-14
-1.21579e-14
-0.00153217
-8.58864e-06
0.000709407
-0.00109348
0.000222266
0.000699959
-4.47032e-17
1
2.78842e-13
3.12035e-13
1
1
1
1
1
1
1
1
1
1
1
1
1
1
1
1
1
1
1
1
1
1
1
1
1
1
1
1
0.999995
0.999996
0.999998
0.999994
1.00001
1
1.00001
1.00001
1.00001
1.00002
0.999997
1.00002
0.999906
0.999945
0.999761
0.999761
1.00005
0.999872
1.00072
1.00041
1.00146
1.00117
1.00162
1.00173
0.999938
1.00114
0.995103
0.998424
0.983937
0.990633
0.967405
0.977982
0.943753
0.959009
0.90636
0.926816
0.849227
0.875601
0.769808
0.800797
0.677987
0.716584
0.568123
0.492987
0.621837
8.06279e-08
-5.38056e-08
8.58669e-07
-8.22709e-07
1.87897e-06
-2.35841e-15
-3.80018e-14
0.023203
0.0908187
2.73534e-06
-7.57642e-06
-0.00742323
-0.00937783
0.000492665
0.000592644
-0.0105148
-0.0224514
-3.46262e-10
6.30628e-09
-9.23656e-06
-0.000145102
-7.27985e-17
-1.31791e-17
9.13162e-17
0.800147
-5.02321e-12
1.00668
1.29396e-13
1.42076e-13
1
1.00742
1.0082
-3.29523e-10
-7.62875e-11
-0.00926869
7.32332e-08
1
4.40304e-11
-3.48964e-14
-5.66855e-08
-3.42323e-12
-3.85685e-12
0.000351897
1
1.01123
5.31805e-11
2.08065e-11
-0.00306925
1.91642e-09
-3.45963e-09
0.000170291
0.000111068
1.32779e-06
4.70896e-10
-2.94147e-12
2.22916e-05
2.75958e-05
1.92917e-15
-0.00162016
-6.0764e-11
5.04908e-10
2.74489e-07
5.45353e-07
4.00844e-14
6.94922e-16
3.51159e-16
-0.0168616
1.88582e-15
4.06437e-09
-1.52901e-07
0.967021
0.990011
0.880757
-8.80611e-08
-1.22201e-07
-7.13653e-13
0.406815
0.52581
0.186207
5.84241e-09
4.91979e-09
2.96081e-09
4.11744e-13
4.72746e-11
4.38274e-11
-5.79587e-11
-1.7562e-07
-1.62811e-07
6.27341e-14
-1.33108e-05
-1.8578e-05
1.50704e-12
0.000257582
0.000234589
2.96306e-06
4.26175e-11
6.53242e-11
-0.0198349
-1.73571e-09
-1.96155e-09
-0.00714446
-0.00703087
-5.53436e-05
-2.23349e-14
-2.12885e-14
2.68636e-09
3.37167e-10
-4.50435e-15
-1.87772e-15
-2.14538e-14
1.1489e-06
-6.61814e-09
-1.36168e-09
1.81112e-06
8.25551e-07
-9.74068e-05
3.789e-15
0.0131932
0.000395288
0.000342955
6.68957e-13
1.25236e-11
-4.35813e-12
1.00543
7.85847e-08
8.55746e-08
1.00132
1.00409
0.999727
1.00042
0.999636
0.999493
0.999871
0.999672
1
0.999931
1.00002
1.00002
1.00001
1.00002
1
1.00001
0.999999
0.999999
0.999999
0.999999
1
1
1
1
1
1
1
1
1
1
1
1
1
1
1
1
1
1
1
1
1
1
1
1
1
1
1
1
1
1
1
1
1
1
1
1
1
1
1
1
1
1
1
1
1
1
1
2.0803e-13
0.00064083
1.00185
-1.86783e-14
-0.00402543
0.000429476
1.791e-12
-1.75849e-09
-2.0949e-09
7.48966e-14
-5.53675e-15
-8.12143e-13
-1.64328e-13
-1.29554e-07
-1.71516e-07
7.99414e-07
2.30137e-15
2.97002e-05
3.28537e-05
0.000543794
0.044806
3.56813e-14
-1.67473e-14
-1.73093e-14
2.06037e-15
1.1572e-07
6.26658e-07
-5.34776e-08
7.40731e-14
1.83676e-14
2.25092e-09
0.000458677
-0.00330821
-0.0105565
0.0343755
1
1
-7.23664e-12
-8.05696e-12
1
1
1
1
1
1
1
1
1
1
1
1
1
1
1
1
1
1
1
1
1
1
1
1
1
1
0.999996
0.999998
0.999997
0.999995
1.00001
1
1.00001
1.00001
1.00002
1.00002
1.00001
1.00002
0.999919
0.999959
0.999766
0.999791
1.00002
0.999889
1.00056
1.00029
1.00115
1.00086
1.0013
1.00127
1.00014
1.00091
0.996807
0.999193
0.98849
0.993811
0.976613
0.985316
0.957499
0.970808
0.920638
0.939896
0.860573
0.885682
0.776378
0.803301
0.684265
0.703713
-2.96843e-12
-2.72338e-12
-7.40816e-06
2.47812e-05
-0.00509821
-0.00953309
0.000605691
0.000471814
-0.027731
-0.0148804
1.17354e-08
-0.00019393
-3.01163e-05
1.00993
1.0101
1.10567e-12
-8.76567e-08
8.31201e-08
-2.36927e-08
1.92575e-13
6.84814e-09
0.000670744
1.40308e-08
7.89236e-08
1.01004
0.614561
2.13295e-11
-2.54556e-12
-5.39472e-12
-0.00202113
3.10214e-09
2.41273e-09
-5.20486e-09
4.93453e-11
1.00785e-06
-4.15455e-08
-1.4798e-11
2.50824e-13
-0.000344297
-3.41098e-08
5.42694e-07
-2.0245e-09
-6.66238e-15
2.43857e-07
4.52637e-13
-2.97708e-14
0.97733
0.948336
-0.0159481
0.415644
0.39595
0.480878
-6.26643e-12
-2.29902e-05
-3.82531e-05
0.129564
0.14714
1.51717e-13
1.36017e-13
1.34725e-12
0.0315322
-0.0269465
-0.000173585
4.15483e-10
-1.81608e-09
5.01493e-11
2.57632e-06
-4.5167e-14
9.84393e-09
0.00943255
0.775529
0.856433
0.520652
2.3862e-13
0.120649
7.47863e-09
1.98221e-12
4.47445e-11
0.277245
0.261995
0.387357
0.000297382
0.000351134
-2.47024e-05
-1.10646e-05
-1.59206e-10
9.66933e-05
2.31978e-15
1.69472e-13
-1.4174e-06
-0.0052235
0.000472259
-0.00840622
-0.00933471
-1.21132e-07
-9.10218e-08
-0.0145412
-5.96116e-10
-5.71556e-10
0.000307756
0.000276426
-6.22515e-09
-6.8135e-06
-3.43632e-06
-3.67961e-14
-6.17361e-06
2.80335e-06
2.1461e-09
9.99416e-09
-5.73378e-11
2.43263e-11
-1.28601e-07
-1.80347e-07
1.00836
-7.69329e-06
0.000660996
1.00287
1.00695
1.00006
1.00149
0.999541
0.999561
0.999767
0.999516
0.999963
0.999843
1.00002
1
1.00002
1.00003
1
1.00001
0.999999
1
0.999999
0.999998
1
0.999999
1
1
1
1
1
1
1
1
1
1
1
1
1
1
1
1
1
1
1
1
1
1
1
1
1
1
1
1
1
1
1
1
1
1
1
1
1
1
1
1
1
1
1
6.3741e-09
-0.0220714
0.203942
0.00017319
2.43087e-09
3.349e-09
-2.66507e-14
-2.69463e-14
-2.12261e-12
1.73183e-06
1.27134e-06
2.64762e-06
2.13456e-13
-1.72188e-07
-9.42053e-08
-0.00020313
3.1941e-13
4.59689e-13
0.558999
-1.02973e-11
-9.29949e-12
-1.56332e-12
-3.91829e-11
-3.82066e-11
-2.98306e-14
-3.24884e-14
-4.81582e-10
6.96729e-09
2.4002e-09
-0.00767756
-0.0200048
0.0769351
4.1338e-05
-6.55776e-06
-7.42484e-05
-0.000191666
0.000801006
0.000754391
-1.81499e-14
-2.94729e-14
1
1
1
1
1
1
1
1
1
1
1
1
1
1
1
1
1
1
1
1
1
1
1
1
1
1
0.999997
0.999999
0.999997
0.999996
1
1
1
1
1.00002
1.00001
1.00001
1.00003
0.999935
0.999974
0.999792
0.999824
1.00004
0.999931
1.0004
1.00019
1.00079
1.00052
1.00086
1.00075
1.00013
1.00059
0.9982
0.999982
0.992838
0.997035
0.98596
0.992934
0.969907
0.981312
0.932462
0.949301
0.868297
0.893793
0.77216
0.805925
0.655887
0.683571
-3.46531e-12
-4.83874e-12
-2.8417e-10
-7.05827e-10
-1.80233e-10
-0.00384498
-0.00122037
-0.000321066
-0.00633878
2.97452e-05
-5.16449e-05
0.00343602
-0.00547394
0.000404822
-8.94138e-05
0.0022195
0.0623727
0.000156342
0.000698476
0.988895
-3.33706e-08
-9.40477e-08
-1.65412e-08
2.20291e-07
-1.86895e-05
-2.79407e-05
-1.88489e-05
0.000539363
-3.80144e-10
7.15666e-08
-1.33931e-05
-7.28072e-09
-5.94483e-09
9.04417e-09
3.75791e-12
-2.1709e-12
-5.05638e-10
-0.0296575
-0.0299655
1.82887e-07
0.141512
-0.00865425
1.09313e-06
2.83253e-06
1.01093
-1.21635e-14
0.5658
-1.52142e-12
-2.47614e-13
-4.5058e-06
-5.20472e-06
-1.80162e-07
6.10972e-05
0.0278305
4.69759e-07
2.60949e-13
-1.72684e-07
-2.3135e-07
3.05241e-09
3.88362e-10
0.000255706
-0.000274372
0.000526558
2.0252e-13
-2.2273e-09
2.14471e-09
-5.11211e-10
-7.68388e-10
6.57768e-09
-1.40588e-08
2.4734e-10
4.85942e-14
6.57968e-11
3.9051e-11
1.09284e-11
3.62724e-11
2.40294e-12
-0.00496963
0.0440114
0.398475
0.201112
0.177055
0.198746
1.01332
0.000210731
2.42555e-13
5.36853e-11
1.89169e-13
2.07316e-14
-0.0083109
-0.0137785
9.08011e-07
7.17814e-07
1.43171e-13
1.61682e-13
4.89529e-13
0.943215
0.905741
-1.08922e-11
-1.21465e-11
0.000357631
0.000429946
2.76674e-05
-1.07708e-05
-2.78001e-06
1.00546
-1.84814e-11
-3.30974e-11
0.320233
0.344389
2.66939e-05
-3.00362e-10
-6.50291e-11
1.00554
1.00098
1.00383
0.999559
1.00004
0.999625
0.999374
0.99989
0.999693
1.00001
0.999959
1.00002
1.00003
1.00001
1.00002
1
1
0.999998
0.999998
0.999999
0.999998
1
1
1
1
1
1
1
1
1
1
1
1
1
1
1
1
1
1
1
1
1
1
1
1
1
1
1
1
1
1
1
1
1
1
1
1
1
1
1
1
1
6.92713e-08
7.85561e-07
-0.00802306
-0.00320816
-1.5286e-09
-8.62819e-08
0.258681
0.000282985
1.29077e-06
2.45179e-14
1.0148e-14
2.14691e-13
0.960607
-3.39194e-12
-1.47462e-07
-1.75796e-07
-2.56026e-08
-3.20346e-06
2.4936e-05
1.28289e-13
0.108714
-6.35701e-09
-7.02818e-09
-1.23359e-12
-5.73447e-13
2.16765e-10
-1.98334e-09
9.65374e-12
4.95826e-11
9.65692e-10
-2.57575e-10
1.03646e-08
5.19626e-09
0.023844
-0.0273884
0.722887
0.786149
0.474099
0.000161444
3.70051e-05
0.478768
-0.000185759
-8.36405e-10
0.000686715
0.000442352
6.81578e-14
7.374e-14
1
1
1
1
1
1
1
1
1
1
1
1
1
1
1
1
1
1
1
1
1
1
1
1
0.999998
1
0.999998
0.999997
1
0.999999
1
0.999998
1.00002
1.00001
1.00002
1.00003
0.99995
0.999986
0.999832
0.999867
1.00008
0.999993
1.00024
1.00009
1.00039
1.00017
1.00033
1.00018
1.00006
1.00033
0.999681
1.00097
0.997284
1.00057
0.994495
1.00016
0.978675
0.988725
0.936039
0.95128
0.866596
0.885957
0.773752
0.805802
-7.97721e-13
-4.78249e-12
-0.0271409
-0.0285468
0.0152389
-0.0122652
-0.0253446
-0.000110048
-0.000191657
0.0222844
0.00242452
-0.00181553
-0.0105721
1.62476e-13
1.64481e-13
1.00759
0.987439
0.118609
0.239211
0.000936205
0.000809153
0.470973
1.14956e-06
-1.459e-07
1.74422e-06
-5.57821e-10
7.06652e-08
-1.78144e-05
3.40981e-07
-2.52875e-05
-0.00138056
-3.5053e-12
0.000315915
-2.30257e-11
0.384807
0.409066
2.66384e-08
4.58297e-08
-0.0097382
1.66052e-11
8.56571e-12
2.77267e-10
-1.99771e-05
0.138454
0.335944
0.0776274
-1.27536e-11
-4.39524e-08
5.5379e-11
-6.45781e-12
-0.000273617
0.000249317
2.83072e-09
3.66721e-12
2.30548e-14
1.01194
1.14108e-11
-6.70581e-10
0.872111
0.820733
0.104277
-8.33965e-05
2.79115e-11
2.0704e-11
1.01534
3.37475e-13
9.30536e-10
4.14685e-09
-1.15314e-10
0.00114671
-0.00828852
0.000307762
0.645401
-7.00479e-08
-1.29599e-07
-5.72469e-08
1.30089e-06
-1.0885e-12
-4.47662e-13
-1.11349e-11
-6.32713e-06
-2.59244e-05
0.000262823
0.000466895
0.00084836
2.61949e-06
-3.05842e-06
1.35314e-06
5.48227e-07
-2.18485e-07
-2.79724e-07
4.59444e-13
0.000195541
-2.62988e-08
-1.1826e-09
-5.17412e-09
-5.94851e-09
1.01175
3.62926e-13
4.2857e-11
6.12475e-11
5.32471e-08
1.99192e-11
3.55696e-13
0.000102348
4.55678e-05
1.00272
0.999805
1.00106
0.999435
0.99927
0.999748
0.99943
0.999976
0.999851
1.00003
1.00002
1.00002
1.00004
1
1.00001
0.999998
1
0.999999
0.999997
1
0.999999
1
1
1
1
1
1
1
1
1
1
1
1
1
1
1
1
1
1
1
1
1
1
1
1
1
1
1
1
1
1
1
1
1
1
1
1
1
1.43926e-10
7.23482e-11
-0.00202083
-0.00435592
0.000272812
-0.0100082
-0.00525976
2.88783e-13
-1.94694e-05
-7.59311e-06
0.00107443
-4.75495e-13
1.85855e-13
-0.0316322
0.000496723
0.00100237
1.92237e-08
2.66842e-13
1.61968e-05
-2.49031e-12
-2.07036e-12
-2.25167e-09
-1.9266e-09
2.06973e-09
1.88231e-11
1.13951e-11
5.10337e-11
0.179759
0.549656
-3.77689e-12
-5.41948e-12
0.703515
0.992798
3.63848e-08
-0.000208791
-0.00369808
1.37796e-06
2.91441e-06
1
1
1.01298
1.00739
1
1
1
1
1
1
1
1
1
1
1
1
1
1
1
1
1
1
1
1
0.999999
1
0.999998
0.999998
0.999999
0.999998
0.999997
0.999995
1.00001
1.00001
1.00002
1.00002
0.999968
1
0.999887
0.99992
1.00012
1.00005
1.00004
0.999951
0.999951
0.999786
0.99979
0.999633
1.0002
1.00028
1.00168
1.00245
1.00231
1.00475
1.00265
1.00716
0.983422
0.993221
0.929884
0.945733
0.846818
0.863752
5.91272e-12
-1.63151e-12
-0.000141212
0.000367369
0.0718793
0.0410178
-0.0179552
-0.02992
0.000641939
2.90742e-05
1.26371e-13
1.00914
1.01584
-6.09184e-10
-2.41385e-10
-5.85929e-14
8.34588e-09
3.42685e-13
1.33227e-07
-3.82777e-06
1.60544e-06
-0.0105195
1.00733
3.17518e-11
2.53815e-11
1.26666e-06
-1.09153e-10
-0.0158778
0.000415984
-1.57306e-07
-1.02673e-07
0.48877
8.50481e-09
7.36105e-09
0.708988
-2.16775e-05
0.000799647
-0.0213686
-0.0179822
2.75908e-08
-0.000119127
-0.000148571
-1.07158e-07
3.37088e-09
-0.00116949
-0.000344827
0.518778
3.0022e-05
-8.83873e-06
0.0105287
-0.0047783
-9.88462e-08
4.2279e-11
4.4505e-11
3.09807e-09
8.0167e-09
1.73579e-09
0.595367
0.642154
0.359034
1.35844e-09
-7.993e-08
0.602777
0.676931
-0.000161839
2.94286e-11
0.752607
6.4587e-10
-1.15555e-07
0.0589194
0.0472484
0.164668
-3.65042e-11