/*--------------------------------*- C++ -*----------------------------------*\
  =========                 |
  \\      /  F ield         | OpenFOAM: The Open Source CFD Toolbox
   \\    /   O peration     | Website:  https://openfoam.org
    \\  /    A nd           | Version:  7
     \\/     M anipulation  |
\*---------------------------------------------------------------------------*/
FoamFile
{
    version     2.0;
    format      ascii;
    class       volScalarField;
    location    "0.66";
    object      T;
}
// * * * * * * * * * * * * * * * * * * * * * * * * * * * * * * * * * * * * * //

dimensions      [0 0 0 1 0 0 0];

internalField   nonuniform List<scalar> 
46572
(
0
0
0
0
0
0
0
0
0
0
0
0
0
0
0
0
0
0
0
0
0
0
0
0
0
0
0
0
0
0
0
0
0
0
0
0
0
0
0
0
0
0
0
0
0
0
0
0
0
0
0
0
0
0
0
0
0
0
0
0
0
0
0
0
0
0
0
0
0
0
0
0
0
0
0
0
0
0
0
0
0
0
0
0
0
0
0
0
0
0
0
0
0
0
0
0
0
0
0
0
0
0
0
0
0
0
0
0
0
0
0
0
0
0
0
0
0
0
0
0
0
0
0
0
0
0
0
0
0
0
0
0
0
0
0
0
0
0
0
0
0
0
0
0
0
0
0
0
0
0
0
0
0
0
0
0
0
0
0
0
0
0
0
0
0
0
0
0
0
0
0
0
0
0
0
0
0
0
0
0
0
0
0
0
0
0
0
0
0
0
0
0
0
0
0
0
0
0
0
0
0
0
0
0
0
0
0
0
0
0
0
0
0
0
0
0
0
0
0
0
0
0
0
0
0
0
0
0
0
0
0
0
0
0
0
0
0
0
0
0
0
0
0
0
0
0
0
0
0
0
0
0
0
0
0
0
0
0
0
0
0
0
0
1.39467e-148
0
9.09085e-136
-3.77979e-137
2.94362e-134
-2.45679e-134
1.24318e-133
7.67866e-134
1.27528e-133
1.15926e-133
1.9943e-130
-6.30658e-130
4.42918e-128
5.11893e-128
4.9404e-127
-3.70419e-128
1.55469e-124
1.90129e-124
5.50001e-123
-2.04019e-122
3.46544e-122
-1.77431e-121
8.92063e-121
-2.55182e-120
-4.28356e-118
-5.50036e-118
-4.54554e-118
-5.7861e-118
-2.8379e-118
-3.92194e-118
-1.47809e-118
-2.70331e-118
-4.05931e-116
-5.15792e-116
-2.62074e-116
-3.43482e-116
2.09564e-117
-7.61253e-116
1.14306e-115
-2.67377e-115
8.96389e-115
5.31704e-115
-3.23629e-114
1.50677e-113
-2.24566e-113
6.8636e-114
-9.1685e-112
-5.46542e-112
-7.83789e-111
-2.57992e-111
-6.04651e-111
-2.44766e-111
8.09581e-111
-4.35235e-111
8.02478e-109
5.41675e-110
8.89043e-109
-1.23075e-108
1.29345e-108
-2.23112e-108
1.36739e-108
-2.76379e-108
6.9352e-108
-1.71585e-107
6.08972e-107
-3.77121e-107
1.07609e-106
3.11163e-106
-6.96585e-105
6.84635e-105
-2.1148e-104
-6.34711e-105
-1.5082e-104
7.99019e-105
-5.60781e-104
1.46757e-103
-1.41988e-103
1.10339e-103
-4.22286e-103
4.37927e-103
-9.17925e-103
7.93465e-103
-1.33561e-102
1.43503e-102
-4.6742e-102
-2.23671e-102
-3.36464e-102
-1.35283e-102
-3.00021e-102
1.17048e-102
-4.35715e-102
-1.31357e-102
-3.5243e-102
-3.82855e-103
-3.98308e-102
3.1728e-102
-1.86557e-101
-1.18816e-101
-1.28591e-101
-6.47179e-102
-1.62472e-101
1.89415e-101
-3.85668e-101
1.08357e-101
-4.63464e-101
-1.26858e-101
-4.49397e-101
4.19006e-102
-6.38266e-101
6.37885e-101
-2.06048e-100
-1.6882e-100
-9.21069e-101
-2.49558e-100
-7.58513e-101
-2.28729e-100
1.00279e-100
-5.21189e-100
8.07149e-101
1.27379e-100
-6.47439e-101
5.62789e-100
1.32544e-99
1.68431e-99
7.63392e-99
1.32181e-98
5.09275e-100
3.74873e-98
-1.19675e-98
4.15369e-98
-1.83583e-98
4.7947e-98
-1.26758e-97
1.52346e-97
-2.39435e-97
-9.21166e-99
-1.72672e-97
1.0664e-97
-5.23352e-97
1.25813e-96
-1.21362e-96
1.15558e-96
-1.63335e-96
2.15796e-96
-2.02927e-96
2.5835e-96
-3.01635e-96
5.56332e-96
-1.16436e-95
4.84642e-96
-6.36824e-95
5.24675e-95
-6.08001e-95
4.19083e-95
-5.73436e-95
3.81985e-95
-5.30812e-95
3.67208e-95
-1.68028e-94
8.87403e-95
-2.83826e-94
-9.43605e-95
-2.08268e-94
-2.43203e-95
-2.52105e-94
2.70926e-94
-4.51586e-94
2.94379e-94
-5.58828e-94
1.13446e-94
-6.40826e-94
4.07952e-94
-9.26428e-94
1.36994e-93
-1.22038e-93
7.96099e-94
-2.18998e-93
1.5374e-93
-1.97145e-93
7.09094e-94
-2.2101e-93
-4.90902e-94
-1.78968e-93
-2.1126e-94
-1.65383e-93
4.32592e-94
-5.67365e-93
-2.11952e-93
-4.07675e-93
-2.06923e-94
-6.00836e-93
8.8408e-93
-1.07841e-92
7.2698e-93
-1.2451e-92
1.52759e-93
-1.21136e-92
2.71622e-93
-1.26574e-92
9.53326e-93
-1.42814e-92
6.13049e-93
-1.59126e-92
1.30208e-92
-1.63462e-92
3.80917e-93
-1.51495e-92
-1.23136e-93
-1.2408e-92
1.19756e-94
-1.08289e-92
-1.31138e-93
-1.03037e-92
-1.36384e-93
-1.64749e-92
2.13732e-92
-3.0207e-92
-5.06992e-94
-3.06247e-92
1.74193e-92
-2.77824e-92
1.3932e-92
-6.09533e-92
2.81246e-92
-9.061e-92
-3.02413e-92
-6.76355e-92
-1.10122e-92
-6.63703e-92
3.07541e-92
-7.6537e-92
8.79894e-93
-1.09321e-91
5.76331e-92
-1.8996e-91
1.13744e-91
-2.26273e-91
2.43743e-91
-2.12623e-91
1.62486e-91
-2.25064e-91
2.2686e-91
-2.18084e-91
1.80049e-91
-3.20086e-91
1.76388e-91
-2.82076e-91
9.45722e-92
-5.6143e-91
1.95812e-91
-8.18756e-91
-2.83218e-91
-6.06708e-91
-1.04045e-91
-5.96822e-91
3.09524e-91
-7.67686e-91
2.46246e-91
-7.86395e-91
-2.39473e-92
-7.01637e-91
1.11463e-91
-6.94301e-91
2.06271e-91
-1.01782e-90
-3.5856e-91
-7.75884e-91
-2.20388e-91
-6.91606e-91
-1.76541e-91
-9.01841e-91
-3.12857e-91
-6.85177e-91
-2.3583e-91
-5.49381e-91
-6.87668e-92
-8.64308e-91
-4.81391e-91
-6.00973e-91
-2.77603e-91
-5.06068e-91
2.43111e-92
-5.03723e-91
2.68684e-93
-4.57972e-91
-8.26097e-92
-3.6514e-91
-4.20315e-92
-3.2832e-91
4.65316e-93
-4.15945e-91
-2.37033e-91
-3.35093e-91
-4.50411e-92
-3.12349e-91
-5.73591e-92
-2.4855e-91
-4.71202e-92
-1.95985e-91
-3.93771e-92
-2.12699e-91
-6.37853e-92
-1.36427e-90
-2.18393e-91
1.35824e-89
9.18766e-89
-6.19234e-88
1.12238e-87
2.62101e-85
8.57525e-87
-1.52761e-83
-2.07534e-84
2.45196e-81
-3.82714e-82
2.35451e-80
-8.95326e-81
3.74565e-79
-4.2535e-79
-3.6247e-78
-1.97345e-78
6.15026e-77
-2.13116e-76
2.19818e-75
5.07914e-76
2.58851e-74
5.54499e-74
1.56093e-72
2.56106e-72
2.79756e-71
2.68803e-71
3.00497e-70
4.7113e-71
1.88656e-69
-4.67574e-08
-1.83629e-08
-4.50177e-10
-7.80998e-12
6.90764e-13
9.25639e-15
-4.07278e-17
6.47798e-19
4.92295e-21
5.37513e-23
-5.11845e-25
-2.08237e-27
1.57784e-28
-2.01858e-30
8.14571e-33
2.99073e-35
-2.93517e-37
1.06668e-40
1.32228e-41
-1.05905e-43
5.09823e-46
-2.11898e-48
1.0276e-50
-1.08471e-52
1.29157e-54
-1.14758e-56
6.49472e-59
-1.96039e-61
3.27297e-64
-1.10122e-66
-5.20208e-08
-5.83533e-08
-1.9385e-07
6.93809e-08
1.11713e-06
5.08881e-07
-9.03327e-06
-3.21852e-05
-4.92754e-05
2.35947e-05
0.000393056
0.00138658
0.00353043
0.00748534
0.0137388
0.0228755
0.0358705
0.0522099
0.0716937
0.0940195
0.117519
0.142596
0.165186
0.181634
0.196431
0.201922
0.199662
0.188227
0.171801
0.147663
0.11896
0.0876363
0.0559458
0.024036
-0.00381453
-0.0278656
-0.046947
-0.0634842
-0.0739415
-0.0770463
-0.0792248
-0.0760634
-0.0714956
-0.0647449
-0.0549483
-0.0486799
-0.0414629
-0.0340575
-0.0281862
-0.0227218
-0.0176928
-0.013607
-0.0105062
-0.00813405
-0.00608503
-0.00439715
-0.00324586
-0.00231997
-0.00163827
-0.00115663
-0.000778091
-0.000549896
-0.000377414
-0.000253249
-0.000169815
-0.000114293
-7.69933e-05
-5.09434e-05
-3.21859e-05
-2.12272e-05
-1.35513e-05
-8.51289e-06
-5.35161e-06
-3.40441e-06
-2.10365e-06
-1.29636e-06
-7.82389e-07
-4.8883e-07
-2.9723e-07
-1.85674e-07
-8.72993e-08
-5.65554e-08
-1.90793e-10
-6.54853e-11
3.05466e-10
4.22257e-10
-8.41672e-10
3.18659e-09
1.85828e-09
-8.71482e-09
1.88198e-08
3.4648e-08
4.53299e-09
-1.95586e-08
7.10811e-10
-3.47819e-10
4.38404e-10
1.3583e-10
1.9296e-10
5.85114e-11
-1.26048e-10
1.00131e-09
-7.5254e-10
5.51783e-10
7.81882e-11
-2.01612e-09
-1.6857e-09
1.56339e-09
3.66699e-10
-1.34718e-09
5.50022e-10
-1.69524e-09
-1.99354e-09
8.62948e-11
-6.83937e-10
1.42852e-09
7.05743e-10
1.94318e-09
2.20115e-09
-1.24965e-09
8.86926e-10
-8.41516e-10
-6.76356e-10
-8.18972e-10
1.33155e-10
1.20047e-09
-1.04406e-09
-3.45771e-10
-4.82445e-10
-9.73523e-09
-5.03694e-09
-2.48751e-08
-9.23447e-09
-1.53785e-08
-1.25553e-08
5.66751e-09
-2.32682e-08
2.45951e-08
-8.26003e-09
4.49211e-08
2.52097e-08
4.73516e-08
3.67598e-09
1.60492e-08
-4.06982e-09
-9.43286e-08
-8.01109e-08
-2.42183e-07
-1.93222e-07
-3.17032e-07
-3.45736e-07
-2.29172e-07
-4.41287e-07
1.00036e-07
-4.00728e-07
6.83452e-07
-1.44887e-07
1.31512e-06
2.48358e-07
1.58167e-06
4.1133e-07
7.20337e-07
-1.76512e-07
-1.9845e-06
-2.43504e-06
-6.87723e-06
-7.59612e-06
-1.31217e-05
-1.64107e-05
-1.84392e-05
-2.93451e-05
-1.67876e-05
-4.52683e-05
1.90075e-06
-5.98638e-05
5.36326e-05
-6.79521e-05
0.000163469
-5.49024e-05
0.000361187
-5.51795e-06
0.000688537
9.59067e-05
0.00120163
0.000287455
0.00193837
0.000613252
0.0030206
0.00107915
0.00450138
0.00181078
0.00639839
0.00278723
0.00886673
0.00403673
0.0118432
0.00571378
0.0157403
0.00769035
0.0201834
0.0103188
0.0253995
0.0131753
0.0316874
0.0166995
0.0384307
0.020647
0.0459754
0.0248534
0.0548924
0.0298513
0.0640967
0.0355012
0.0736674
0.0408975
0.084367
0.0470828
0.094858
0.0532573
0.105982
0.0590628
0.116105
0.0651901
0.127675
0.0706276
0.137597
0.0766569
0.146739
0.0807552
0.157001
0.0858785
0.163813
0.0888663
0.16961
0.0902903
0.176251
0.092363
0.179857
0.0934402
0.180862
0.0912484
0.182334
0.0899991
0.179495
0.0853394
0.175495
0.0787393
0.171212
0.0727134
0.162045
0.0642143
0.154933
0.0554274
0.145611
0.0478854
0.133761
0.0374786
0.121561
0.0255076
0.107879
0.0133379
0.0942875
0.00129083
0.0791902
-0.0104695
0.0644722
-0.0237235
0.049079
-0.0349222
0.0346784
-0.0471458
0.0206473
-0.0584099
0.00626935
-0.0684021
-0.00562455
-0.0777334
-0.0173551
-0.0865199
-0.0295457
-0.0941572
-0.039944
-0.100698
-0.0488006
-0.106281
-0.0559611
-0.11011
-0.0620394
-0.113896
-0.0676977
-0.115594
-0.070535
-0.116303
-0.0761319
-0.11634
-0.0761636
-0.115027
-0.0763986
-0.112513
-0.077724
-0.110518
-0.0775963
-0.107596
-0.0747286
-0.103241
-0.0741004
-0.0991725
-0.0716658
-0.0944973
-0.0686352
-0.0895587
-0.0646196
-0.0841256
-0.0614282
-0.0791538
-0.0580663
-0.0739138
-0.0538038
-0.0683415
-0.0512566
-0.063505
-0.0464052
-0.0579651
-0.0422452
-0.0526792
-0.0392628
-0.0483375
-0.0360201
-0.0440711
-0.0321671
-0.0395528
-0.0295829
-0.0358445
-0.0261538
-0.0318683
-0.0231838
-0.0282471
-0.0209985
-0.0252149
-0.0181614
-0.0220496
-0.0162087
-0.0195874
-0.0145213
-0.0174693
-0.012787
-0.0153537
-0.0112288
-0.0134331
-0.00970199
-0.0116537
-0.00849442
-0.0101886
-0.0074303
-0.00885859
-0.00630779
-0.00758927
-0.00555717
-0.00658062
-0.00468729
-0.00560018
-0.0039811
-0.00476258
-0.00345975
-0.00411404
-0.00294379
-0.00350338
-0.00246249
-0.00294464
-0.00211355
-0.00251068
-0.00178632
-0.00212165
-0.00150935
-0.00178839
-0.00125911
-0.00149836
-0.00105983
-0.00126072
-0.000890933
-0.00105668
-0.000736405
-0.00087624
-0.000623837
-0.000736222
-0.000510015
-0.000605534
-0.000419368
-0.000498514
-0.000350952
-0.000415404
-0.000291493
-0.000344608
-0.000236472
-0.000281268
-0.000196567
-0.000232659
-0.000160899
-0.000190549
-0.00013168
-0.000155766
-0.000106831
-0.000126632
-8.71133e-05
-0.000103497
-7.10549e-05
-8.41907e-05
-5.68882e-05
-6.7489e-05
-4.54861e-05
-5.3973e-05
-3.70783e-05
-4.39811e-05
-3.00524e-05
-3.56484e-05
-2.44695e-05
-2.90005e-05
-1.98101e-05
-2.34476e-05
-1.56573e-05
-1.86374e-05
-1.27378e-05
-1.50516e-05
-1.0043e-05
-1.19024e-05
-7.91614e-06
-9.42059e-06
-6.36633e-06
-7.5375e-06
-4.94696e-06
-5.88597e-06
-3.95153e-06
-4.70005e-06
-3.17325e-06
-3.77049e-06
-2.51249e-06
-2.98925e-06
-1.98963e-06
-2.36479e-06
-1.56209e-06
-1.86221e-06
-1.23573e-06
-1.47365e-06
-9.77576e-07
-1.16156e-06
-7.56845e-07
-9.03692e-07
-6.02507e-07
-7.16014e-07
-4.69107e-07
-5.59158e-07
-3.68441e-07
-4.3801e-07
-2.92499e-07
-3.44926e-07
-2.26036e-07
-2.65491e-07
-1.68796e-07
-2.00897e-07
-1.31516e-07
-1.59979e-07
-1.17348e-07
-8.0305e-08
-1.31935e-07
-1.15299e-25
3.97906e-24
3.4549e-21
1.36288e-18
1.80245e-16
3.12654e-16
8.16767e-15
4.99109e-12
3.92934e-10
5.47875e-10
5.27418e-09
5.62158e-09
-1.97317e-10
0
0
0
3.8693e-45
-5.86741e-34
1.02078e-30
-1.19056e-29
-1.85738e-27
9.0973e-26
-4.20843e-26
-6.67755e-25
-6.88946e-25
-9.07109e-25
4.8452e-24
-1.23634e-23
3.72978e-23
4.09823e-24
-2.84176e-23
-3.29848e-23
-4.13352e-23
-4.13606e-23
-5.935e-23
-4.9348e-23
-3.49023e-23
-1.2719e-23
-2.56166e-24
3.19254e-23
9.03138e-24
-6.5418e-24
3.91451e-23
4.79201e-23
7.27095e-23
1.01749e-22
1.07707e-22
8.18646e-23
4.7784e-23
1.95069e-23
-9.20072e-24
-1.80122e-23
-2.26097e-23
-2.6649e-23
-1.83854e-23
-1.71868e-23
-1.39932e-23
-6.51135e-24
-3.68908e-24
-1.55432e-24
-2.00297e-25
5.35689e-25
1.10003e-24
1.19142e-24
1.06665e-24
6.73791e-25
5.94661e-25
3.69005e-25
2.51084e-25
1.80429e-25
1.03334e-25
7.22245e-26
4.71539e-26
3.04804e-26
2.34498e-26
1.98385e-26
1.5702e-26
1.14654e-26
5.79881e-27
4.36772e-27
3.5423e-27
1.69408e-27
1.07912e-27
4.98877e-28
2.48367e-28
4.72915e-28
3.89591e-28
6.4716e-28
7.6127e-28
4.77111e-28
3.96561e-28
3.72871e-28
2.73323e-28
1.73126e-28
3.00321e-29
2.84847e-29
5.99517e-30
-1.48642e-29
-1.4507e-29
-1.77087e-29
-1.39014e-29
-9.74307e-30
-9.69791e-30
-7.24642e-30
-4.64154e-30
-3.59489e-30
-2.54627e-30
-1.89982e-30
-1.27299e-30
-7.4731e-31
-5.11542e-31
-9.79624e-30
-2.77708e-26
2.16526e-69
6.21361e-11
3.99536e-11
5.0286e-09
2.79271e-09
-7.72665e-10
-1.01228e-11
-1.40143e-12
-1.03856e-13
-2.31703e-16
1.43768e-18
-9.43751e-20
-1.84734e-22
-7.22614e-24
1.68578e-25
-2.18906e-27
1.15942e-29
4.90128e-32
-7.21361e-34
3.05597e-38
3.21051e-38
-2.66506e-40
1.20081e-42
-3.06941e-45
7.50797e-48
3.5108e-50
-6.25116e-52
4.45819e-54
-4.26675e-57
-2.39935e-58
3.01098e-60
-1.41096e-62
1.98867e-65
-2.43788e-10
-3.7437e-68
-1.50161e-07
-1.78354e-07
5.28877e-07
1.36127e-06
-2.6347e-06
-1.91875e-05
-4.4916e-05
-3.28722e-05
0.000150685
0.000783397
0.00226142
0.00518834
0.0102992
0.0179715
0.0291041
0.0434521
0.0613582
0.0834562
0.105677
0.130283
0.152842
0.172559
0.18946
0.198073
0.199205
0.196413
0.179794
0.158824
0.133914
0.103757
0.0721986
0.0406365
0.01089
-0.0175355
-0.0381974
-0.0557623
-0.0673104
-0.073602
-0.0793132
-0.0755698
-0.0711126
-0.0671793
-0.0592771
-0.0521948
-0.0453021
-0.0369605
-0.0315811
-0.024901
-0.0195498
-0.0158447
-0.0119985
-0.00926601
-0.00690761
-0.00504513
-0.00380666
-0.00267256
-0.00190221
-0.00135898
-0.000943097
-0.000655144
-0.000459291
-0.000303597
-0.000211918
-0.000139526
-9.38762e-05
-6.16129e-05
-3.96539e-05
-2.60906e-05
-1.665e-05
-1.05351e-05
-6.86953e-06
-4.2357e-06
-2.61916e-06
-1.63147e-06
-9.88567e-07
-6.18533e-07
-3.73382e-07
-2.32298e-07
-1.57964e-07
1.64517e-10
5.52996e-10
-5.16938e-10
3.46682e-10
-1.5293e-09
-4.18803e-11
2.94194e-09
-1.09457e-08
-3.12046e-09
2.53735e-08
2.5564e-08
-3.10145e-10
4.00263e-10
1.129e-10
1.84533e-10
1.74612e-10
4.46269e-10
-9.10783e-11
1.06832e-10
1.19159e-10
1.34674e-18
1.56112e-11
-1.18668e-22
-7.51686e-20
-2.00162e-17
-9.08641e-16
1.20788e-14
-4.23389e-13
-5.84086e-11
-1.6655e-09
5.14476e-21
0
0
0
-5.12402e-38
2.88106e-32
1.01278e-29
2.0353e-27
-9.37576e-27
3.46988e-27
1.83232e-25
2.05272e-24
-1.10067e-24
-1.13768e-23
-1.80689e-23
-3.59557e-23
-5.77331e-23
-3.60052e-23
-2.12109e-23
-4.94652e-23
-5.73175e-23
-5.15791e-23
-6.52127e-23
-3.57977e-23
-3.09016e-23
9.1565e-24
4.15939e-25
1.8133e-24
4.58507e-23
2.62619e-23
5.42906e-23
8.64479e-23
9.34771e-23
1.28811e-22
1.09143e-22
6.87594e-23
1.18875e-23
5.50308e-24
-2.30422e-23
-1.74931e-23
-2.87667e-23
-2.80692e-23
-2.17313e-23
-1.59302e-23
-1.18322e-23
-6.08919e-24
-3.03926e-24
-8.2413e-25
1.48345e-26
7.90619e-25
1.07051e-24
1.0038e-24
1.08289e-24
6.16488e-25
5.72234e-25
2.9432e-25
2.21825e-25
1.58171e-25
9.21602e-26
5.48389e-26
4.28017e-26
2.44046e-26
2.06058e-26
1.72848e-26
1.14355e-26
1.02537e-26
4.94945e-27
3.42635e-27
3.43612e-27
1.12464e-27
7.77606e-28
3.4813e-28
5.2888e-28
6.13203e-28
6.17136e-28
6.16793e-28
7.95895e-28
3.68818e-28
3.86081e-28
2.97877e-28
1.89689e-28
1.52895e-28
3.97367e-29
8.47133e-30
1.62647e-30
-1.12494e-29
-1.38473e-29
-1.49115e-29
-1.09061e-29
-9.27863e-30
-8.09498e-30
-5.98925e-30
-4.21977e-30
-2.85726e-30
-2.24711e-30
-1.51945e-30
-9.27582e-31
-5.82951e-31
3.3366e-30
9.56858e-28
1.01663e-68
0
-5.38451e-17
1.54995e-18
-1.65724e-19
-3.06741e-22
-1.16242e-23
3.32131e-25
-4.49099e-27
2.70522e-29
7.66652e-32
-1.24212e-33
-5.02427e-38
6.04225e-38
-5.15289e-40
2.13526e-42
-6.24665e-45
1.5135e-47
6.31771e-50
-1.12284e-51
7.02756e-54
2.57903e-57
-5.24751e-58
5.64094e-60
-2.60819e-62
3.7435e-65
-1.04029e-67
-2.33678e-07
1.95398e-07
1.33077e-06
6.10253e-08
-1.23274e-05
-4.4435e-05
-8.72768e-05
-8.06591e-05
0.000118092
0.00074074
0.00217749
0.00485243
0.0089636
0.0151649
0.0236927
0.0339956
0.0469673
0.0596369
0.0742065
0.0870232
0.0963041
0.103402
0.104754
0.0997942
0.0925034
0.0729119
0.0522637
0.0285052
9.38354e-05
-0.0257221
-0.0511386
-0.0741474
-0.092864
-0.107032
-0.11751
-0.122481
-0.122028
-0.119798
-0.111539
-0.101743
-0.0916085
-0.0799048
-0.0682356
-0.0582807
-0.0476388
-0.0395624
-0.0313747
-0.0245376
-0.0194931
-0.0147445
-0.0113774
-0.00850941
-0.00622193
-0.00464244
-0.00328705
-0.00232733
-0.00165867
-0.00115382
-0.000796459
-0.000556735
-0.000371194
-0.000255766
-0.000168431
-0.000113716
-7.48572e-05
-4.83763e-05
-3.163e-05
-2.02484e-05
-1.28313e-05
-8.30508e-06
-5.1269e-06
-3.19117e-06
-1.98941e-06
-1.20954e-06
-7.52422e-07
-4.57251e-07
-2.83253e-07
-1.8544e-07
-7.24607e-10
-1.04552e-10
-1.19064e-09
-2.14548e-09
2.39923e-09
-2.40733e-10
-7.88965e-09
1.94766e-08
-3.97531e-10
3.75379e-10
-1.31943e-11
9.66306e-11
8.47804e-11
-9.11996e-12
-6.44894e-11
5.61615e-10
-3.08407e-10
2.15612e-10
9.37697e-10
3.83971e-16
3.6821e-15
-2.70601e-14
7.14325e-12
7.29102e-10
0
0
1.00544e-40
3.50061e-32
-2.70815e-29
-3.15659e-27
-4.24753e-27
-3.93154e-26
-2.14146e-25
3.1766e-24
5.15073e-24
-6.86289e-24
-2.03076e-23
1.92678e-23
-1.30845e-22
2.03691e-23
9.62716e-23
6.51931e-23
3.90935e-23
8.64308e-24
-9.13078e-24
-3.98849e-23
-9.41329e-23
-6.26955e-23
-9.37239e-23
-1.60542e-22
-1.00378e-22
-2.47096e-22
-2.9016e-22
-1.63344e-22
-1.97661e-22
-4.61397e-23
4.48922e-23
8.88373e-23
9.00196e-23
1.11953e-22
7.43394e-23
5.90876e-23
3.77949e-23
1.67477e-23
1.34012e-23
4.09296e-24
-3.98094e-24
-3.24531e-24
-3.81604e-24
-2.81259e-24
-3.11815e-24
-1.84902e-24
-1.35555e-24
-8.32046e-25
-2.13599e-25
-4.85218e-25
1.82607e-26
-8.73288e-26
1.41197e-26
3.27311e-26
2.00716e-26
1.08502e-26
1.02738e-26
-4.43735e-27
-7.37336e-27
-3.13462e-27
-6.59752e-27
7.10529e-28
-4.31425e-27
-4.5453e-27
-1.66471e-27
-1.68337e-27
-2.18872e-27
-1.12667e-27
-8.64546e-28
-1.42303e-27
-1.78513e-27
-1.22218e-27
-5.37018e-28
-8.62307e-28
-2.88777e-28
-1.11597e-28
-1.27215e-28
5.51935e-30
-1.02104e-28
-5.00508e-29
-1.11706e-30
-2.4824e-29
-4.74123e-30
-7.19329e-30
-5.95102e-30
5.75131e-31
-3.49961e-30
-1.0868e-30
9.00025e-31
1.52956e-31
-8.22605e-33
-1.42869e-31
-7.38534e-32
-4.85947e-31
-1.95222e-30
-6.65215e-28
6.85125e-21
1.11447e-22
-1.53127e-24
1.9371e-27
2.42871e-28
-3.72661e-30
1.47139e-32
5.67459e-35
-5.83634e-37
4.40773e-40
2.18346e-41
-1.81364e-43
8.69073e-46
-3.77127e-48
2.06596e-50
-2.11375e-52
2.49473e-54
-2.11855e-56
1.1538e-58
-3.53263e-61
6.48749e-64
-2.70521e-66
-2.02566e-07
-1.43868e-07
7.44602e-07
1.38968e-06
-3.97271e-06
-2.57094e-05
-6.66705e-05
-9.6912e-05
-2.29271e-05
0.000361253
0.00132795
0.00331242
0.00675304
0.0118343
0.0193631
0.0287454
0.0402719
0.05354
0.0666903
0.0815166
0.0928562
0.0999299
0.105907
0.104172
0.0966259
0.0830566
0.0649467
0.04171
0.0156408
-0.0126833
-0.0379049
-0.0621095
-0.0836082
-0.100489
-0.112885
-0.121045
-0.123225
-0.121188
-0.116531
-0.107464
-0.09677
-0.0863605
-0.073195
-0.0632463
-0.052941
-0.0433871
-0.03536
-0.0280973
-0.0218783
-0.0168696
-0.0129608
-0.00994928
-0.00737929
-0.00537816
-0.00394433
-0.00280184
-0.00197786
-0.00140078
-0.00095026
-0.000667467
-0.000457088
-0.000307899
-0.000206421
-0.000138327
-9.32407e-05
-6.12552e-05
-3.90362e-05
-2.56242e-05
-1.63564e-05
-1.03427e-05
-6.48097e-06
-4.11123e-06
-2.54224e-06
-1.57035e-06
-9.519e-07
-5.93058e-07
-3.61841e-07
-2.25206e-07
6.21405e-10
-9.31479e-11
9.70747e-10
-7.24277e-10
3.20262e-09
2.69729e-09
-6.7286e-09
-4.63815e-11
4.27701e-08
1.34147e-10
5.11042e-11
8.00779e-11
8.41316e-11
3.41193e-10
-2.23434e-10
2.6175e-10
-5.89605e-11
-1.53953e-22
-1.29713e-19
-3.84293e-17
-2.46069e-15
2.3191e-14
-6.0864e-13
-9.88161e-11
-4.22717e-09
0
0
1.03512e-35
-2.8094e-31
5.75052e-29
-1.64367e-26
-1.38637e-25
-7.36547e-26
-3.82336e-25
-1.51877e-23
-1.11929e-23
4.15699e-23
7.01124e-23
9.72714e-23
2.58483e-22
1.17e-22
6.08904e-23
1.05213e-22
5.27816e-23
2.99017e-24
-8.08913e-24
-6.17161e-23
-1.82753e-23
-7.13982e-23
-9.74669e-23
-8.81299e-23
-2.05771e-22
-2.04902e-22
-1.68417e-22
-2.13012e-22
-1.13103e-22
-3.13152e-23
6.11102e-23
9.46433e-23
1.16961e-22
6.73018e-23
4.60245e-23
5.56118e-23
1.70806e-23
2.19838e-23
6.33132e-24
-1.8203e-24
-1.82192e-25
-2.84451e-24
-2.452e-24
-2.87581e-24
-1.87621e-24
-1.18607e-24
-8.00466e-25
-4.54499e-25
-4.87905e-25
-4.13557e-26
-4.86152e-26
-6.3011e-26
4.11832e-26
1.07124e-26
2.0812e-26
9.85177e-27
1.19754e-27
-2.44723e-27
-4.2659e-27
-3.6006e-27
1.03624e-29
-1.47416e-27
-3.43262e-27
-2.34497e-27
-1.01788e-27
-1.21775e-27
-7.92512e-28
-1.4411e-27
-9.19105e-28
-1.40371e-27
-9.51377e-28
-5.77804e-28
-6.58845e-28
-2.9061e-28
-7.56281e-29
-8.44971e-29
-2.36601e-29
-1.16111e-28
-3.00708e-29
5.34318e-30
-2.7547e-29
8.88572e-31
-7.65567e-30
-6.62385e-30
1.42358e-31
-4.24148e-30
-1.22842e-30
2.09345e-30
2.5289e-31
4.63664e-31
-1.42128e-31
-9.39135e-32
-6.57789e-32
-7.64182e-31
-1.30454e-29
-4.91954e-12
-9.70258e-17
1.52655e-14
1.56876e-12
-2.02118e-13
-2.7075e-11
-1.05763e-07
6.66976e-11
-8.86532e-11
4.24607e-24
2.57622e-18
0
0
0
0
0
0
0
0
0
0
0
0
0
0
0
0
0
0
0
0
0
0
0
0
0
0
0
0
0
0
0
0
0
0
0
0
0
0
0
0
0
0
0
0
0
0
0
0
0
0
0
0
0
0
0
0
0
0
0
0
0
0
0
0
0
0
0
0
0
0
0
0
0
0
0
0
0
0
0
0
0
0
0
0
0
0
0
0
0
0
0
0
0
0
0
0
0
0
0
0
0
0
0
0
0
0
0
0
0
0
0
0
0
0
0
0
0
0
0
0
0
0
0
0
0
0
0
0
0
0
0
0
0
0
0
0
0
0
0
0
0
0
0
0
0
0
0
0
0
0
0
0
0
0
0
0
0
0
0
0
0
0
0
0
0
0
0
0
0
0
0
0
0
0
0
0
0
0
0
0
0
0
0
0
0
0
0
0
0
0
0
0
0
0
0
0
0
1.20433e-10
0
0
0
0
0
0
0
0
0
0
0
0
0
0
0
0
0
0
0
0
0
0
0
0
0
0
0
0
0
0
0
0
0
0
0
0
0
0
0
0
0
0
0
0
0
0
0
0
0
0
0
0
0
0
0
0
0
0
0
0
0
0
8.56268e-147
0
1.17337e-133
-2.32217e-135
2.26809e-132
-9.05055e-133
6.25953e-132
-1.05325e-131
1.67137e-129
-2.35707e-131
1.33992e-126
1.60856e-126
8.28606e-126
9.85421e-126
8.02458e-126
-8.00899e-125
3.23547e-122
-1.91752e-122
-4.75369e-120
-6.42629e-120
3.79092e-121
7.64399e-120
-1.61089e-117
-2.27683e-117
-3.42966e-116
-4.33183e-116
-2.16631e-116
-2.87688e-116
-1.38221e-116
-1.45612e-116
-1.77967e-115
-2.25718e-115
-1.87089e-114
-2.39978e-114
-1.05571e-114
-1.7312e-114
-4.75295e-113
-6.59978e-113
9.33832e-114
-3.45874e-113
7.4781e-113
2.4373e-113
-6.61004e-112
4.27674e-111
5.97193e-111
7.65167e-111
-3.81008e-110
4.60046e-110
-6.79103e-109
-2.32216e-110
-5.26719e-109
2.86522e-109
-8.09137e-109
6.49919e-108
5.92527e-107
5.70992e-107
1.82599e-106
-6.06931e-106
3.54295e-106
-8.093e-106
4.35714e-106
-7.6339e-106
1.50742e-105
-4.73671e-105
1.49297e-104
-2.4487e-104
-3.3776e-105
4.71996e-104
-6.40713e-103
2.00235e-103
-1.03662e-102
1.35336e-102
-1.68984e-102
2.58564e-102
-1.0497e-101
5.01082e-102
-1.43591e-101
6.07179e-102
-5.0432e-101
1.06728e-100
-9.86863e-101
3.78883e-101
-1.5013e-100
-4.16444e-101
-1.9718e-100
-5.69531e-101
-1.5693e-100
-3.31232e-102
-2.57151e-100
8.28764e-101
-2.35129e-100
1.35926e-100
-2.41649e-100
1.94785e-100
-4.4673e-100
-6.64859e-101
-7.1248e-100
-2.97573e-100
-6.18086e-100
-2.91001e-101
-2.28891e-99
-4.51464e-100
-3.60009e-99
-1.30936e-99
-2.96775e-99
-1.13095e-100
-4.48715e-99
4.18557e-99
-9.40169e-99
-1.75652e-99
-7.03918e-99
-3.17192e-99
-1.1505e-98
-2.30576e-98
-5.75728e-99
-2.1593e-98
1.25426e-98
-3.78294e-98
1.12121e-98
-1.1326e-98
5.48031e-98
8.28507e-98
2.03815e-97
7.13947e-98
2.67405e-97
6.26371e-97
-9.92489e-98
2.36938e-96
-1.04729e-96
4.08715e-96
-1.83636e-96
3.56681e-96
-8.73784e-96
4.54533e-96
-9.61664e-96
1.09216e-95
-1.29499e-95
1.80277e-95
-7.11165e-95
5.18172e-95
-1.05825e-94
6.5847e-95
-1.63479e-94
2.18605e-94
-2.12282e-94
3.28073e-94
-3.74821e-94
1.42321e-94
-8.58352e-94
1.83616e-93
-4.83909e-93
2.53928e-94
-4.36193e-93
2.62409e-93
-4.15741e-93
2.8879e-93
-4.0471e-93
2.70268e-93
-1.0838e-92
-1.20043e-93
-1.0159e-92
1.43471e-93
-9.27813e-93
2.43084e-93
-2.11032e-92
6.71047e-93
-3.11008e-92
3.03737e-93
-3.05061e-92
1.66997e-92
-4.55286e-92
4.48098e-92
-8.79339e-92
-1.6211e-93
-8.38164e-92
7.49894e-93
-1.49748e-91
-9.31164e-92
-1.11003e-91
-2.32934e-92
-8.4132e-92
-7.27111e-93
-7.62875e-92
3.55334e-92
-8.86868e-92
1.96339e-92
-1.99763e-91
1.78667e-92
-2.00384e-91
9.52956e-92
-5.89219e-91
5.53409e-92
-7.61192e-91
-3.79437e-92
-6.3915e-91
1.77941e-92
-6.74167e-91
3.06228e-91
-9.21412e-91
-1.89081e-91
-8.98503e-91
2.46226e-91
-1.18622e-90
-5.30059e-91
-8.92368e-91
-2.67979e-91
-6.6689e-91
-1.34368e-91
-5.85291e-91
-2.94412e-93
-4.67234e-91
9.28906e-92
-4.817e-91
3.90442e-91
-1.41078e-90
-7.26618e-92
-1.35669e-90
8.16214e-91
-1.90617e-90
4.5598e-91
-1.73161e-90
6.9471e-91
-3.49988e-90
-4.28344e-91
-2.98978e-90
1.2759e-91
-2.59941e-90
2.06533e-91
-3.84486e-90
3.0099e-91
-3.7103e-90
-3.13456e-92
-6.58735e-90
9.18865e-90
-1.17189e-89
3.09411e-90
-1.69536e-89
-4.07457e-90
-1.41665e-89
-1.2797e-90
-1.6788e-89
-3.34302e-90
-1.50965e-89
1.9684e-90
-1.93381e-89
-4.03008e-90
-1.54264e-89
5.9564e-91
-2.96609e-89
-6.03277e-90
-2.62587e-89
1.2793e-90
-2.28072e-89
1.58566e-90
-3.48549e-89
9.59773e-91
-4.01554e-89
-5.48141e-90
-3.25774e-89
-1.51254e-90
-3.30644e-89
1.32542e-89
-3.47323e-89
-3.82595e-90
-3.2209e-89
6.97456e-90
-2.57432e-89
4.42791e-90
-2.34009e-89
6.16458e-90
-2.80899e-89
-6.96029e-90
-2.13541e-89
-2.83588e-90
-2.02388e-89
-4.76948e-90
-2.18525e-89
-9.67444e-90
-1.65632e-89
-5.33944e-90
-2.16253e-89
-5.42585e-90
-2.10618e-89
-5.3904e-90
-1.64372e-89
-3.69176e-90
-1.38075e-89
1.24927e-90
-1.33562e-89
-2.99954e-90
-1.03335e-89
-5.87386e-91
-1.22371e-89
1.08115e-91
-1.11058e-89
-1.32893e-90
-8.61651e-90
-2.10606e-90
-6.76142e-90
-1.57444e-90
-2.66701e-90
-3.72185e-90
-1.04306e-88
-4.88347e-89
-2.10224e-88
7.52151e-88
-4.58623e-86
1.1554e-85
2.3219e-84
5.54804e-85
3.40198e-82
-2.69403e-83
1.66513e-80
6.63976e-81
1.30624e-78
-1.05844e-78
1.10119e-77
-7.58201e-78
2.5524e-76
-1.15974e-76
5.22465e-75
1.54889e-75
2.67429e-75
5.04129e-75
5.212e-73
-6.60195e-73
1.89205e-71
2.76941e-71
6.40099e-70
7.55018e-70
2.67634e-69
9.67595e-69
1.19852e-70
-1.14069e-16
-1.03448e-11
-7.50628e-10
4.47898e-09
6.32032e-09
-1.27746e-09
-2.05816e-13
1.68815e-12
-3.95643e-13
-1.52218e-19
4.77297e-10
-2.2095e-22
-1.18733e-23
3.58484e-25
-4.69944e-27
2.85443e-29
8.67746e-32
-1.22039e-33
-6.63679e-37
6.40629e-38
-5.19025e-40
2.07179e-42
-5.95486e-45
1.3136e-47
8.62937e-50
-1.34228e-51
8.83476e-54
-1.16858e-56
-4.83255e-58
5.67589e-60
-2.57132e-62
3.26481e-65
-9.22189e-68
2.6878e-68
-1.79828e-07
4.00098e-13
-7.34229e-08
6.72914e-07
6.50725e-07
-4.51758e-06
-1.99404e-05
-4.14143e-05
-4.06725e-05
5.33103e-05
0.000364568
0.00102809
0.00223931
0.00407876
0.00647978
0.00974024
0.0128536
0.0159928
0.018553
0.0195278
0.0203377
0.0177322
0.011772
0.00633986
-0.00246957
-0.01275
-0.0235153
-0.0325906
-0.0422583
-0.0494211
-0.0539204
-0.0563281
-0.0546429
-0.0527241
-0.0485657
-0.0419093
-0.0372957
-0.0308156
-0.024641
-0.0194168
-0.0134759
-0.00926534
-0.00628194
-0.00196857
-0.00113429
0.000316145
0.00109137
0.00117852
0.00136077
0.00131859
0.00127141
0.00111345
0.000771272
0.000647436
0.000505453
0.00038533
0.000295454
0.0002199
0.000153955
0.000132051
8.56134e-05
6.34903e-05
4.44951e-05
3.08541e-05
2.11596e-05
1.29317e-05
8.2142e-06
5.99469e-06
3.72598e-06
2.31647e-06
1.44575e-06
9.7462e-07
5.7563e-07
3.55048e-07
2.37481e-07
1.63403e-07
9.65375e-08
5.06017e-08
2.07448e-08
-1.8953e-10
-1.09187e-07
4.02313e-16
2.12212e-10
-7.47356e-10
2.41509e-10
-1.96581e-09
-4.56397e-10
9.27744e-10
-7.94838e-09
7.88433e-09
-1.8831e-10
1.08811e-10
-2.12809e-10
2.03866e-08
1.10171e-10
-7.67859e-11
-1.54439e-10
3.95965e-24
-6.01874e-11
-7.38761e-11
-2.06438e-11
3.81507e-12
-4.49066e-10
3.51955e-10
-2.3099e-10
5.75986e-11
-7.73091e-11
7.12143e-11
1.31549e-18
-2.34797e-19
-9.57121e-08
-9.21856e-08
1.21192e-16
-2.4775e-16
2.61186e-09
1.68624e-09
2.71952e-09
-6.37396e-10
1.68043e-11
-3.179e-12
-2.53215e-10
4.23654e-10
2.83916e-10
7.1786e-10
9.40752e-10
-2.04293e-09
4.25061e-10
-3.84878e-09
-2.47712e-09
-2.60464e-09
-1.95663e-09
4.98521e-10
5.1326e-11
5.55887e-09
6.32958e-09
5.65525e-09
1.16144e-08
9.57076e-10
9.23397e-09
-4.973e-09
1.79957e-09
-1.5013e-08
1.67096e-09
-9.088e-09
7.38464e-09
1.66119e-08
3.03137e-08
1.76991e-08
4.9937e-08
8.91024e-09
6.5097e-08
-6.32328e-08
5.98616e-08
-1.53744e-07
1.10923e-08
-2.3874e-07
-4.66206e-08
-2.16081e-07
-3.2411e-08
-5.37013e-08
8.62002e-08
2.9109e-07
3.80175e-07
6.75802e-07
8.36243e-07
7.28463e-07
1.28822e-06
1.75864e-08
1.38969e-06
-2.15163e-06
5.54441e-07
-6.4538e-06
-1.82502e-06
-1.28535e-05
-6.56611e-06
-2.12941e-05
-1.41332e-05
-2.97384e-05
-2.48811e-05
-3.54957e-05
-3.87197e-05
-3.11381e-05
-5.21673e-05
-9.43247e-06
-6.28696e-05
4.31831e-05
-6.82705e-05
0.000138437
-5.80874e-05
0.000293783
-2.60592e-05
0.000523084
3.63507e-05
0.000857975
0.00012877
0.00131719
0.000258189
0.00190456
0.000457214
0.00268485
0.00070282
0.00354777
0.00106677
0.00462321
0.00143879
0.00593469
0.00185996
0.00722257
0.00247343
0.00860444
0.00280217
0.0101164
0.00343298
0.0114996
0.00373481
0.0130062
0.00390762
0.0146925
0.0041837
0.0158281
0.00459779
0.016917
0.00400864
0.0176898
0.00399031
0.018351
0.00334149
0.0180982
0.00269155
0.0179091
0.00133606
0.0172273
-0.000105633
0.0157058
-0.00129268
0.0143654
-0.0040278
0.0117441
-0.00500558
0.00841614
-0.00814006
0.00571356
-0.0115611
0.00257835
-0.0137055
-0.00194115
-0.0160362
-0.00546029
-0.0201336
-0.0107209
-0.0217387
-0.0159186
-0.0252676
-0.0202274
-0.0284711
-0.0249716
-0.0299231
-0.0290628
-0.033176
-0.0319703
-0.0344077
-0.0355033
-0.0348775
-0.0393015
-0.0359876
-0.0419252
-0.0365479
-0.0442572
-0.0369335
-0.04629
-0.036552
-0.0475807
-0.035844
-0.0476049
-0.0340651
-0.0481807
-0.0331488
-0.0470041
-0.0307046
-0.0457061
-0.0275168
-0.0430907
-0.0248796
-0.0416888
-0.0208104
-0.0405656
-0.0184709
-0.0381858
-0.0169922
-0.0356637
-0.0137621
-0.0320007
-0.0107521
-0.0293857
-0.00708705
-0.0262653
-0.00460781
-0.0227848
-0.00229917
-0.0206874
0.00144127
-0.0173057
0.0014428
-0.0138552
0.00448935
-0.012254
0.00736189
-0.0104019
0.00737307
-0.00755551
0.00809132
-0.00621956
0.0103807
-0.00437824
0.00984818
-0.00265721
0.0108434
-0.000879764
0.011285
-0.000159127
0.0119938
0.000737247
0.0115767
0.00197041
0.0114921
0.00183432
0.0119265
0.00279368
0.0103359
0.00336773