/*--------------------------------*- C++ -*----------------------------------*\
  =========                 |
  \\      /  F ield         | OpenFOAM: The Open Source CFD Toolbox
   \\    /   O peration     | Website:  https://openfoam.org
    \\  /    A nd           | Version:  7
     \\/     M anipulation  |
\*---------------------------------------------------------------------------*/
FoamFile
{
    version     2.0;
    format      ascii;
    class       volScalarField;
    location    "0.4";
    object      T;
}
// * * * * * * * * * * * * * * * * * * * * * * * * * * * * * * * * * * * * * //

dimensions      [0 0 0 1 0 0 0];

internalField   nonuniform List<scalar> 
2500
(
0.5
0.0669146
-0.0353169
-0.0277115
-0.00789976
0.00112932
0.00220712
0.000963789
3.88244e-05
-0.000206259
-0.000130494
-2.60554e-05
1.75826e-05
1.73447e-05
5.81401e-06
-1.2541e-06
-2.52119e-06
-1.31828e-06
-1.33851e-07
3.30688e-07
3.04873e-07
1.42641e-07
2.48217e-08
-2.03156e-08
-2.29425e-08
-1.2989e-08
-4.58933e-09
-5.36334e-10
6.05869e-10
5.6871e-10
2.98944e-10
1.08121e-10
2.21326e-11
-3.75933e-12
-6.5495e-12
-3.96011e-12
-1.67463e-12
-5.19704e-13
-9.38104e-14
1.56155e-14
2.45683e-14
1.42195e-14
5.97633e-15
1.9709e-15
4.77327e-16
4.63189e-17
-3.35123e-17
-2.79884e-17
-1.38896e-17
-4.66142e-18
0.933085
0.5
0.14482
-0.0139075
-0.0411718
-0.0230289
-0.00507437
0.00215695
0.00250718
0.00101071
2.67267e-08
-0.000254924
-0.000157388
-3.06292e-05
2.32385e-05
2.31669e-05
8.2071e-06
-1.58218e-06
-3.79008e-06
-2.37164e-06
-6.52567e-07
2.13421e-07
3.66839e-07
2.35199e-07
8.92124e-08
1.02707e-08
-1.37713e-08
-1.30306e-08
-6.86534e-09
-2.38693e-09
-3.69044e-10
1.98377e-10
2.13707e-10
1.1701e-10
4.52811e-11
1.17904e-11
6.84251e-13
-1.43445e-12
-1.09148e-12
-5.22522e-13
-1.89365e-13
-5.04376e-14
-6.41743e-15
2.86657e-15
2.78838e-15
1.44504e-15
5.72839e-16
1.82771e-16
4.44334e-17
1.25302e-18
1.03532
0.85518
0.5
0.182448
0.00830363
-0.0419282
-0.0324411
-0.0120092
3.88183e-05
0.00307813
0.00201946
0.000522145
-0.00019039
-0.000261724
-0.000116976
-2.45173e-06
3.2811e-05
2.3584e-05
6.76478e-06
-2.44704e-06
-4.09134e-06
-2.52714e-06
-8.23241e-07
5.52613e-08
2.67742e-07
1.98277e-07
8.96258e-08
2.28393e-08
-2.66237e-09
-6.91804e-09
-4.6042e-09
-2.0163e-09
-5.87073e-10
-5.05697e-11
6.86779e-11
5.71605e-11
2.84211e-11
1.03693e-11
2.61332e-12
1.76263e-13
-2.76375e-13
-2.12373e-13
-1.02153e-13
-3.78212e-14
-1.07867e-14
-1.91691e-15
2.00569e-16
3.86936e-16
2.26536e-16
8.55296e-17
1.02771
1.01391
0.817552
0.5
0.206389
0.0268057
-0.0388676
-0.0384377
-0.0184162
-0.00302372
0.00284069
0.00282021
0.00118018
3.44241e-05
-0.00030492
-0.000217426
-6.0223e-05
2.39353e-05
3.69132e-05
2.08323e-05
4.8191e-06
-2.55368e-06
-3.50545e-06
-2.10917e-06
-7.41714e-07
-4.30747e-08
1.49756e-07
1.26561e-07
6.32205e-08
2.04576e-08
2.15361e-09
-2.49816e-09
-2.23806e-09
-1.15123e-09
-4.20081e-10
-9.66469e-11
3.28444e-12
1.81781e-11
1.20129e-11
5.38525e-12
1.82858e-12
4.31435e-13
2.22894e-14
-4.70402e-14
-3.44245e-14
-1.62664e-14
-6.02513e-15
-1.76936e-15
-3.62069e-16
3.2418e-17
1.0079
1.04117
0.991696
0.793611
0.5
0.223366
0.0421546
-0.034303
-0.0421153
-0.0239666
-0.00647633
0.00197893
0.00332595
0.00186272
0.000385287
-0.000269109
-0.000311329
-0.000147581
-1.41604e-05
3.58739e-05
3.32182e-05
1.59252e-05
3.11046e-06
-2.01042e-06
-2.47083e-06
-1.45164e-06
-5.32573e-07
-7.05399e-08
6.67862e-08
6.61434e-08
3.56697e-08
1.31328e-08
2.70467e-09
-4.99514e-10
-8.48277e-10
-5.14784e-10
-2.17712e-10
-6.65972e-11
-1.09561e-11
2.96022e-12
3.70669e-12
2.06848e-12
8.48051e-13
2.69478e-13
5.93308e-14
1.77123e-15
-6.97976e-15
-4.83408e-15
-2.24705e-15
-6.98735e-16
0.998871
1.02303
1.04193
0.973194
0.776635
0.5
0.236308
0.0551552
-0.0291462
-0.0442068
-0.0286489
-0.0100047
0.000686822
0.00354985
0.00252331
0.000847159
-0.000130289
-0.000366566
-0.000247438
-8.2088e-05
1.08373e-05
3.40216e-05
2.47274e-05
1.05418e-05
1.81345e-06
-1.29277e-06
-1.47859e-06
-8.50516e-07
-3.20141e-07
-5.80846e-08
2.35994e-08
2.93419e-08
1.6989e-08
6.83295e-09
1.82203e-09
9.11609e-11
-2.48454e-10
-1.89331e-10
-9.12007e-11
-3.28827e-11
-8.39205e-12
-7.25542e-13
7.56143e-13
6.14736e-13
3.03432e-13
1.15731e-13
3.47795e-14
7.2007e-15
7.82491e-17
-1.01591e-15
0.997793
1.00507
1.03244
1.03887
0.957847
0.763692
0.499998
0.246666
0.0663842
-0.0238035
-0.0451868
-0.0325502
-0.0134555
-0.00090438
0.00351513
0.00313472
0.00141197
0.000140465
-0.000338052
-0.000323352
-0.000162263
-3.61336e-05
1.7976e-05
2.51074e-05
1.56237e-05
6.07407e-06
9.44372e-07
-7.09796e-07
-7.68777e-07
-4.33843e-07
-1.6608e-07
-3.59213e-08
6.05953e-09
1.12507e-08
7.03025e-09
3.03491e-09
9.3923e-10
1.50664e-10
-4.87161e-11
-5.78607e-11
-3.2216e-11
-1.31867e-11
-4.13924e-12
-8.61006e-13
1.80132e-14
1.34095e-13
8.67955e-14
3.91389e-14
1.41695e-14
3.10824e-15
0.999036
0.997843
1.01201
1.03844
1.0343
0.944842
0.753328
0.499998
0.255259
0.0762505
-0.0184822
-0.0454151
-0.0358466
-0.016838
-0.00278662
0.00317408
0.00362153
0.00203056
0.000542354
-0.000192308
-0.000333944
-0.000223745
-8.94659e-05
-1.09467e-05
1.53982e-05
1.54142e-05
8.53898e-06
3.07353e-06
4.38931e-07
-3.40779e-07
-3.53098e-07
-1.9599e-07
-7.60043e-08
-1.847e-08
6.10905e-10
3.75142e-09
2.57133e-09
1.18389e-09
4.06458e-10
9.24118e-11
-6.51485e-14
-1.42792e-11
-9.74217e-12
-4.50194e-12
-1.6249e-12
-4.48951e-13
-7.19617e-14
1.4198e-14
1.92567e-14
1.0036e-14
0.999961
0.997493
0.999962
1.01842
1.04211
1.02914
0.933616
0.744752
0.500009
0.26256
0.0850017
-0.013329
-0.0451732
-0.0387254
-0.0202339
-0.00503284
0.00240634
0.00383769
0.00258313
0.00101278
6.15167e-05
-0.000258368
-0.000239089
-0.000128325
-4.16137e-05
-5.79477e-07
9.99031e-06
8.1289e-06
4.09917e-06
1.38191e-06
1.84386e-07
-1.44844e-07
-1.45048e-07
-7.95002e-08
-3.12117e-08
-8.27213e-09
-4.65988e-10
1.07981e-09
8.39586e-10
4.12787e-10
1.53879e-10
4.22238e-11
5.58446e-12
-2.48698e-12
-2.50598e-12
-1.33425e-12
-5.41777e-13
-1.76378e-13
-4.3347e-14
-9.76496e-16
1.00021
0.998989
0.996923
1.00302
1.02396
1.0442
1.02382
0.923784
0.737454
0.499968
0.268833
0.092862
-0.00828838
-0.0444707
-0.0411601
-0.023595
-0.00764633
0.00111957
0.00362896
0.00291206
0.00143653
0.000364179
-0.00011181
-0.000200242
-0.000138456
-6.24769e-05
-1.62552e-05
1.99734e-06
5.36226e-06
3.75688e-06
1.75276e-06
5.59775e-07
7.16071e-08
-5.48434e-08
-5.38197e-08
-2.92925e-08
-1.16605e-08
-3.3154e-09
-4.00908e-10
2.59669e-10
2.4571e-10
1.30083e-10
5.21384e-11
1.62207e-11
3.37148e-12
-6.51601e-14
-5.25353e-13
-3.44049e-13
-1.58181e-13
-4.85732e-14
1.00013
1
0.997981
0.997158
1.00647
1.02865
1.04521
1.01853
0.915002
0.73103
0.499853
0.274429
0.100317
-0.00290253
-0.0428938
-0.0427631
-0.0265911
-0.0104145
-0.000621499
0.00293828
0.00290008
0.00169585
0.000631483
6.13828e-05
-0.000121845
-0.000118879
-6.76017e-05
-2.6214e-05
-5.26671e-06
1.71429e-06
2.47342e-06
1.54572e-06
6.76794e-07
2.07373e-07
2.6381e-08
-1.85532e-08
-1.81888e-08
-9.90081e-09
-4.00729e-09
-1.21027e-09
-2.06361e-10
4.65881e-11
6.42465e-11
3.72893e-11
1.60316e-11
5.48894e-12
1.42078e-12
1.82503e-13
-7.53926e-14
-7.57488e-14
1.00003
1.00026
0.999477
0.997176
0.998019
1.01001
1.03257
1.04543
1.0133
0.907024
0.725322
0.499865
0.279868
0.108008
0.00347376
-0.0398085
-0.0429114
-0.0286553
-0.0128982
-0.00255094
0.00186676
0.00253425
0.00172576
0.000793827
0.000210598
-3.147e-05
-8.00752e-05
-5.83211e-05
-2.85127e-05
-9.61434e-06
-1.37357e-06
9.47653e-07
1.00395e-06
5.74304e-07
2.39217e-07
7.12948e-08
9.40546e-09
-5.60775e-09
-5.63813e-09
-3.09525e-09
-1.27814e-09
-4.07379e-10
-8.56328e-11
2.78607e-12
1.47813e-11
9.74245e-12
4.51151e-12
1.67495e-12
5.01121e-13
6.53191e-14
0.999983
1.00016
1.00019
0.998812
0.996682
0.999347
1.01346
1.03576
1.04505
1.00831
0.899898
0.720313
0.499985
0.285165
0.116036
0.0110801
-0.0348126
-0.0410759
-0.0292182
-0.0145863
-0.00428743
0.000642947
0.00191209
0.00153831
0.000823894
0.000301381
4.47055e-05
-3.68196e-05
-4.07591e-05
-2.45419e-05
-1.06008e-05
-3.13302e-06
-2.6276e-07
4.17302e-07
3.65294e-07
1.95293e-07
7.83845e-08
2.30389e-08
3.27093e-09
-1.50644e-09
-1.61178e-09
-9.01015e-10
-3.81015e-10
-1.2758e-10
-3.10013e-11
-2.43912e-12
2.86377e-12
2.3111e-12
1.1714e-12
3.98832e-13
0.999983
1.00003
1.00026
0.999951
0.998154
0.996523
1.00091
1.01661
1.03839
1.04462
1.00399
0.89346
0.715061
0.498784
0.288896
0.123345
0.019341
-0.0280692
-0.037131
-0.0279832
-0.0151163
-0.00549055
-0.000473552
0.001193
0.00120679
0.000739269
0.000325167
9.17793e-05
-1.10934e-06
-2.18935e-05
-1.73565e-05
-9.09694e-06
-3.54315e-06
-9.24256e-07
-2.12436e-08
1.5709e-07
1.21039e-07
6.15226e-08
2.40743e-08
7.06706e-09
1.10651e-09
-3.53536e-10
-4.26395e-10
-2.45471e-10
-1.06733e-10
-3.74266e-11
-1.01354e-11
-1.53336e-12
4.00973e-13
4.9636e-13
0.999994
0.99998
1.00011
1.00028
0.999635
0.997598
0.996534
1.00242
1.01955
1.04124
1.04497
1.00013
0.885771
0.706309
0.492727
0.288139
0.127931
0.0270192
-0.0203071
-0.0314644
-0.0250773
-0.0144212
-0.0059866
-0.00128954
0.000531397
0.000827045
0.000585085
0.00029509
0.00010804
2.13087e-05
-6.65876e-06
-9.90267e-06
-6.44379e-06
-3.0372e-06
-1.08505e-06
-2.5192e-07
9.80148e-09
5.24357e-08
3.7012e-08
1.81429e-08
6.99274e-09
2.07191e-09
3.61423e-10
-6.89728e-11
-1.04468e-10
-6.28116e-11
-2.82123e-11
-1.03375e-11
-3.06708e-12
-3.85992e-13
1
0.999982
0.999996
1.00018
1.00028
0.999317
0.996992
0.996379
1.00395
1.02329
1.04551
1.0459
0.993924
0.871839
0.688445
0.477109
0.279681
0.127792
0.0327777
-0.0125439
-0.0248515
-0.0210015
-0.0127302
-0.00580253
-0.00172777
2.83867e-05
0.000480418
0.000411008
0.000234516
0.000100903
3.05763e-05
2.97342e-06
-4.01809e-06
-3.77038e-06
-2.14577e-06
-9.31042e-07
-3.09827e-07
-6.48105e-08
6.36831e-09
1.58807e-08
1.05594e-08
5.0513e-09
1.93425e-09
5.83139e-10
1.13224e-10
-9.33275e-12
-2.36272e-11
-1.51223e-11
-7.0861e-12
-2.26641e-12
1
0.999998
0.999963
1.00002
1.00031
1.00032
0.99881
0.995952
0.996172
1.00672
1.02938
1.05108
1.04398
0.978981
0.844393
0.655534
0.44826
0.261671
0.121914
0.0357316
-0.00573164
-0.0181903
-0.0164383
-0.0104508
-0.00511439
-0.00181957
-0.000282477
0.000214117
0.000254549
0.000166019
8.1009e-05
3.02775e-05
7.38552e-06
-3.02975e-07
-1.70469e-06
-1.26753e-06
-6.54748e-07
-2.66315e-07
-8.37594e-08
-1.6078e-08
2.3863e-09
4.43296e-09
2.83537e-09
1.33675e-09
5.12152e-10
1.57986e-10
3.38867e-11
1.73498e-13
-4.89077e-12
-3.24961e-12
1
1.00001
0.999975
0.999932
1.00013
1.00056
1.00016
0.997642
0.99456
0.9973
1.01266
1.03792
1.05415
1.03175
0.946807
0.796848
0.604245
0.405506
0.234583
0.110682
0.0357012
-0.000496968
-0.0122377
-0.0120304
-0.00801566
-0.00415764
-0.00166222
-0.000421439
4.03613e-05
0.000134988
0.000105086
5.76833e-05
2.48377e-05
8.13084e-06
1.49447e-06
-4.09685e-07
-6.02146e-07
-3.87295e-07
-1.86122e-07
-7.20239e-08
-2.17111e-08
-3.92265e-09
7.0913e-10
1.1531e-09
7.21425e-10
3.37998e-10
1.30304e-10
4.12669e-11
9.74258e-12
-1.1315e-13
1
1.00001
0.999994
0.999919
0.99998
1.00042
1.00069
0.999258
0.995803
0.9943
1.00204
1.02217
1.0449
1.04644
0.999743
0.89045
0.726626
0.535708
0.351641
0.201015
0.0956171
0.0331376
0.00295001
-0.00745244
-0.0082301
-0.00576568
-0.00314747
-0.00137026
-0.000436788
-5.28899e-05
5.57341e-05
5.88858e-05
3.68767e-05
1.78515e-05
6.91596e-06
1.98553e-06
2.34217e-07
-1.89249e-07
-1.88333e-07
-1.09698e-07
-4.99267e-08
-1.86103e-08
-5.44927e-09
-9.55683e-10
1.79843e-10
2.81626e-10
1.74831e-10
8.19694e-11
3.20951e-11
8.27258e-12
0.999999
1.00001
1
0.999938
0.999923
1.00024
1.00069
1.0001
0.997475
0.994777
0.997696
1.01113
1.03128
1.04153
1.01768
0.94064
0.808024
0.636705
0.455266
0.291868
0.164672
0.0787544
0.0288602
0.00475704
-0.00397237
-0.00525223
-0.00389997
-0.00223418
-0.00104056
-0.000381279
-8.85027e-05
1.04775e-05
2.81885e-05
2.11555e-05
1.14959e-05
5.04377e-06
1.78152e-06
4.46629e-07
1.84418e-08
-6.63675e-08
-5.38475e-08
-2.92132e-08
-1.27638e-08
-4.63145e-09
-1.33375e-09
-2.34412e-10
3.96125e-11
6.48846e-11
4.06533e-11
1.68521e-11
0.999999
1.00001
1.00001
0.999957
0.999924
1.00013
1.00052
1.00031
0.998561
0.996231
0.997221
1.00581
1.02077
1.03087
1.01682
0.960018
0.852895
0.703962
0.534675
0.370559
0.232014
0.129188
0.0620241
0.0237673
0.00529003
-0.00168775
-0.0031094
-0.00248399
-0.00149425
-0.00073703
-0.000297652
-8.97686e-05
-1.07303e-05
1.02428e-05
1.07149e-05
6.67749e-06
3.27308e-06
1.32556e-06
4.31116e-07
9.35428e-08
-4.8924e-09
-2.00816e-08
-1.43518e-08
-7.39145e-09
-3.13353e-09
-1.11677e-09
-3.19803e-10
-5.79068e-11
7.3816e-12
1.44877e-11
0.999999
1.00001
1
0.999966
0.999942
1.00009
1.00038
1.00022
0.998989
0.9974
0.998211
1.00442
1.01506
1.02174
1.00941
0.962313
0.871872
0.741823
0.58752
0.430124
0.289138
0.176968
0.0973069
0.0468591
0.0186232
0.00498442
-0.000353028
-0.00168634
-0.00148893
-0.000944616
-0.000490859
-0.000213593
-7.48866e-05
-1.73901e-05
1.19705e-06
4.552e-06
3.47569e-06
1.91663e-06
8.67813e-07
3.28827e-07
9.92978e-08
1.842e-08
-3.13395e-09
-5.50481e-09
-3.61275e-09
-1.79084e-09
-7.43001e-10
-2.62012e-10
-7.57404e-11
-8.53418e-12
0.999999
1
1
0.999968
0.999958
1.0001
1.00031
1.00008
0.999029
0.997994
0.999269
1.00482
1.013
1.01627
1.00218
0.957929
0.876152
0.758929
0.617752
0.469695
0.331865
0.216708
0.129843
0.0705704
0.0340695
0.0139553
0.00423459
0.000312607
-0.000814128
-0.000837049
-0.000565303
-0.000309028
-0.000143038
-5.55377e-05
-1.66769e-05
-2.44873e-06
1.34314e-06
1.57695e-06
1.01284e-06
5.11297e-07
2.17374e-07
7.79038e-08
2.20181e-08
3.44613e-09
-1.10304e-09
-1.40161e-09
-8.66921e-10
-4.17906e-10
-1.7169e-10
-4.8747e-11
0.999999
1
1
0.999967
0.999965
1.00011
1.00029
0.999982
0.998937
0.998169
0.999923
1.00561
1.01284
1.0139
0.997458
0.952742
0.874178
0.764044
0.632105
0.492618
0.36018
0.246096
0.156412
0.0918948
0.0494203
0.0239103
0.0100437
0.0033368
0.000559176
-0.000324038
-0.000437677
-0.000320131
-0.000184517
-9.02192e-05
-3.7829e-05
-1.31451e-05
-3.26354e-06
-7.5956e-08
5.7213e-07
4.75371e-07
2.72656e-07
1.28705e-07
5.20104e-08
1.77952e-08
4.74784e-09
6.21113e-10
-3.14973e-10
-3.36393e-10
-2.00428e-10
-8.28133e-11
0.999999
1.00001
1
0.999966
0.999966
1.00012
1.00029
0.999943
0.998847
0.998152
1.00019
1.00621
1.0133
1.01333
0.995144
0.949029
0.870832
0.763725
0.637156
0.503923
0.376747
0.265518
0.17585
0.109013
0.0629088
0.0335102
0.0162424
0.00696798
0.0024778
0.000576277
-7.63361e-05
-0.000208997
-0.000171025
-0.000104639
-5.39035e-05
-2.40699e-05
-9.23077e-06
-2.85846e-06
-5.41911e-07
1.07543e-07
1.88442e-07
1.3045e-07
6.90116e-08
3.09122e-08
1.19897e-08
3.94955e-09
1.00446e-09
1.10134e-10
-7.98168e-11
-7.47945e-11
0.999999
1.00001
1
0.999965
0.999966
1.00013
1.0003
0.999936
0.998796
0.998089
1.00025
1.00651
1.01376
1.01348
0.994361
0.947026
0.868168
0.761827
0.637783
0.508349
0.385165
0.276972
0.188658
0.12141
0.0735654
0.0417658
0.0220564
0.0107067
0.00467479
0.00175163
0.000490031
3.0792e-05
-8.72909e-05
-8.55549e-05
-5.63257e-05
-3.06085e-05
-1.44475e-05
-5.96878e-06
-2.10421e-06
-5.73616e-07
-6.72344e-08
5.25636e-08
5.41756e-08
3.33895e-08
1.66243e-08
7.14344e-09
2.68096e-09
8.56888e-10
2.11372e-10
2.3672e-12
0.999999
1.00001
1
0.999965
0.999965
1.00013
1.00031
0.99994
0.998777
0.99804
1.00023
1.00662
1.01404
1.01378
0.994288
0.946213
0.866603
0.760083
0.636892
0.509376
0.388717
0.282933
0.196259
0.129555
0.0812106
0.0481923
0.0269573
0.0141246
0.00686413
0.00304141
0.0011873
0.00037419
6.42195e-05
-2.79434e-05
-3.94423e-05
-2.86825e-05
-1.65386e-05
-8.22826e-06
-3.61423e-06
-1.39355e-06
-4.52456e-07
-1.06097e-07
-2.03585e-09
1.75651e-08
1.42424e-08
8.09309e-09
3.8451e-09
1.59833e-09
5.87487e-10
1.42226e-10
0.999999
1.00001
1
0.999965
0.999964
1.00013
1.00031
0.999945
0.998774
0.998016
1.00019
1.00663
1.01416
1.014
0.994431
0.946013
0.865884
0.758966
0.635856
0.509101
0.389792
0.285591
0.200293
0.134413
0.0862181
0.052762
0.0307201
0.0169528
0.00881867
0.00428875
0.00192362
0.000775802
0.000265623
6.38716e-05
-2.32379e-06
-1.6164e-05
-1.37092e-05
-8.49439e-06
-4.46022e-06
-2.06892e-06
-8.54716e-07
-3.09463e-07
-9.24816e-08
-1.79108e-08
2.30955e-09
4.98422e-09
3.50684e-09
1.87659e-09
8.63485e-10
2.93436e-10
0.999999
1.00001
1
0.999965
0.999964
1.00013
1.00031
0.999948
0.998776
0.998008
1.00017
1.00661
1.0142
1.01411
0.994574
0.946045
0.865643
0.758401
0.635124
0.508553
0.389838
0.286526
0.20217
0.137033
0.0892174
0.0557461
0.0333736
0.0190964
0.0104083
0.00537813
0.00261637
0.00118539
0.000490714
0.000178481
5.13256e-05
6.55125e-06
-5.31959e-06
-6.04908e-06
-4.12989e-06
-2.3028e-06
-1.12562e-06
-4.92796e-07
-1.92986e-07
-6.59151e-08
-1.80846e-08
-2.68532e-09
1.04412e-09
1.28159e-09
8.23772e-10
3.72416e-10
0.999999
1.00001
1
0.999965
0.999964
1.00013
1.00031
0.999949
0.998779
0.998007
1.00016
1.0066
1.0142
1.01415
0.994662
0.946122
0.865611
0.758178
0.634722
0.508113
0.389592
0.286702
0.202898
0.138293
0.0908561
0.0575393
0.0351011
0.0205963
0.0115989
0.00625003
0.00320919
0.00156108
0.000713112
0.000301488
0.000114768
3.69033e-05
8.00396e-06
-8.03045e-07
-2.37348e-06
-1.88318e-06
-1.1303e-06
-5.83487e-07
-2.69306e-07
-1.12273e-07
-4.19375e-08
-1.35627e-08
-3.40235e-09
-3.30943e-10
3.24019e-10
2.975e-10
0.999999
1.00001
1
0.999965
0.999964
1.00013
1.00031
0.99995
0.99878
0.998008
1.00015
1.00659
1.01419
1.01416
0.994702
0.94618
0.86564
0.758118
0.634543
0.50785
0.389351
0.286623
0.203097
0.138817
0.0916656
0.0585298
0.036142
0.0215699
0.0124258
0.00689572
0.00367661
0.00187656
0.000912385
0.000419555
0.000180428
7.11413e-05
2.46847e-05
6.73425e-06
7.39142e-07
-7.44471e-07
-7.89759e-07
-5.24523e-07
-2.8814e-07
-1.40103e-07
-6.16721e-08
-2.46535e-08
-8.82942e-09
-2.71249e-09
-6.23107e-10
2.93443e-11
0.999999
1.00001
1
0.999965
0.999964
1.00013
1.00031
0.99995
0.998781
0.998009
1.00015
1.00659
1.01418
1.01416
0.994716
0.946211
0.865673
0.75812
0.634482
0.507721
0.389192
0.286505
0.203097
0.138989
0.0920198
0.0590299
0.0367222
0.0221576
0.0129609
0.00734105
0.00401913
0.00212184
0.00107679
0.000523077
0.0002418
0.000105432
4.27338e-05
1.56637e-05
4.87061e-06
1.02588e-06
-1.00613e-07
-2.91046e-07
-2.2739e-07
-1.35119e-07
-6.94844e-08
-3.21949e-08
-1.36187e-08
-5.24917e-09
-1.82055e-09
-4.01876e-10
0.999999
1.00001
1
0.999965
0.999964
1.00013
1.00031
0.99995
0.998781
0.998009
1.00015
1.00658
1.01418
1.01416
0.994718
0.946224
0.865694
0.758134
0.63447
0.50767
0.389107
0.286416
0.203048
0.139019
0.0921504
0.0592576
0.0370204
0.0224879
0.0132844
0.00762839
0.0042538
0.00229981
0.00120296
0.000607096
0.000294541
0.00013671
6.02793e-05
2.49738e-05
9.53717e-06
3.22794e-06
8.71223e-07
1.05135e-07
-8.18907e-08
-8.97527e-08
-5.96977e-08
-3.28037e-08
-1.60195e-08
-7.13196e-09
-2.93126e-09
-8.9555e-10
0.999999
1.00001
1
0.999965
0.999964
1.00013
1.00031
0.99995
0.998781
0.99801
1.00016
1.00658
1.01418
1.01416
0.994717
0.946228
0.865704
0.758146
0.634474
0.507655
0.38907
0.286365
0.203003
0.139004
0.0921849
0.0593482
0.0371605
0.0226601
0.0134674
0.00780232
0.00440477
0.00242097
0.00129365
0.000670783
0.000336695
0.000163092
7.59271e-05
3.37812e-05
1.42433e-05
5.61341e-06
2.01571e-06
6.2255e-07
1.36727e-07
-4.75327e-09
-3.02517e-08
-2.44382e-08
-1.46641e-08
-7.59577e-09
-3.57493e-09
-1.30652e-09
0.999999
1.00001
1
0.999965
0.999964
1.00013
1.00031
0.999949
0.998781
0.99801
1.00016
1.00658
1.01418
1.01415
0.994716
0.946229
0.865708
0.758153
0.634479
0.507653
0.389057
0.286341
0.202974
0.138984
0.0921852
0.0593773
0.0372195
0.0227431
0.013564
0.00790123
0.00449623
0.0024987
0.00135502
0.00071616
0.00036828
0.000183877
8.88979e-05
4.14741e-05
1.85857e-05
7.94778e-06
3.21048e-06
1.20393e-06
4.04884e-07
1.11839e-07
1.70582e-08
-6.86072e-09
-8.92678e-09
-6.1334e-09
-3.43704e-09
-1.48663e-09
0.999999
1.00001
1
0.999965
0.999964
1.00013
1.00031
0.999949
0.998781
0.99801
1.00016
1.00658
1.01418
1.01415
0.994715
0.946228
0.865709
0.758156
0.634483
0.507655
0.389054
0.286331
0.202959
0.138969
0.0921775
0.0593826
0.0372407
0.0227796
0.0136116
0.00795404
0.00454847
0.0025458
0.00139428
0.000746695
0.000390598
0.000199283
9.89805e-05
4.77483e-05
2.23061e-05
1.00529e-05
4.34809e-06
1.79109e-06
6.94091e-07
2.47509e-07
7.74457e-08
1.8474e-08
9.727e-10
-2.61373e-09
-2.35088e-09
-1.32576e-09
0.999999
1.00001
1
0.999965
0.999964
1.00013
1.00031
0.999949
0.998781
0.99801
1.00016
1.00658
1.01418
1.01415
0.994715
0.946228
0.865709
0.758157
0.634485
0.507657
0.389054
0.286328
0.202953
0.138961
0.0921706
0.0593807
0.0372465
0.0227938
0.0136332
0.00798046
0.00457663
0.00257281
0.00141807
0.000766169
0.000405534
0.000210083
0.000106378
5.25642e-05
2.52946e-05
1.18243e-05
5.35249e-06
2.33635e-06
9.7759e-07
3.88625e-07
1.44608e-07
4.8959e-08
1.41104e-08
2.71949e-09
-3.288e-10
-7.78319e-10
0.999999
1.00001
1
0.999965
0.999964
1.00013
1.00031
0.999949
0.998781
0.99801
1.00016
1.00658
1.01418
1.01415
0.994715
0.946228
0.865709
0.758157
0.634486
0.507658
0.389054
0.286327
0.20295
0.138957
0.0921662
0.0593778
0.0372468
0.0227984
0.013642
0.00799278
0.00459092
0.00258748
0.00143176
0.000777972
0.000415033
0.000217273
0.000111524
5.60633e-05
2.75615e-05
1.32273e-05
6.18366e-06
2.80842e-06
1.23488e-06
5.23262e-07
2.12244e-07
8.15528e-08
2.91522e-08
9.34585e-09
2.45833e-09
1.30948e-10
0.999999
1.00001
1
0.999965
0.999964
1.00013
1.00031
0.999949
0.998781
0.99801
1.00016
1.00658
1.01418
1.01415
0.994715
0.946228
0.865708
0.758157
0.634486
0.507659
0.389055
0.286327
0.20295
0.138955
0.0921639
0.0593757
0.0372459
0.0227993
0.0136453
0.00799808
0.00459773
0.00259502
0.00143925
0.000784782
0.000420789
0.000221833
0.000114934
5.84808e-05
2.91936e-05
1.42796e-05
6.83322e-06
3.19301e-06
1.45362e-06
6.42895e-07
2.752e-07
1.13435e-07
4.46837e-08
1.66149e-08
5.73757e-09
1.32004e-09
0.999999
1.00001
1
0.999965
0.999964
1.00013
1.00031
0.999949
0.998781
0.99801
1.00016
1.00658
1.01418
1.01415
0.994715
0.946228
0.865708
0.758157
0.634486
0.507659
0.389055
0.286327
0.202949
0.138954
0.0921629
0.0593745
0.037245
0.0227992
0.0136462
0.00800013
0.00460075
0.00259868
0.00144314
0.000788527
0.000424117
0.000224595
0.00011709
6.00744e-05
3.03135e-05
1.50307e-05
7.31531e-06
3.48983e-06
1.62924e-06
7.42893e-07
3.30056e-07
1.42447e-07
5.94805e-08
2.38907e-08
9.20279e-09
2.67416e-09
0.999999
1.00001
1
0.999965
0.999964
1.00013
1.00031
0.999949
0.998781
0.99801
1.00016
1.00658
1.01418
1.01415
0.994715
0.946228
0.865708
0.758157
0.634486
0.507659
0.389055
0.286327
0.20295
0.138954
0.0921625
0.0593739
0.0372444
0.0227988
0.0136463
0.00800081
0.00460199
0.00260035
0.00144505
0.00079049
0.000425956
0.000226195
0.000118395
6.10795e-05
3.10484e-05
1.55428e-05
7.65661e-06
3.70794e-06
1.76319e-06
8.22084e-07
3.75189e-07
1.6727e-07
7.26668e-08
3.06572e-08
1.25752e-08
4.07248e-09
0.999999
1.00001
1
0.999965
0.999964
1.00013
1.00031
0.999949
0.998781
0.99801
1.00016
1.00658
1.01418
1.01415
0.994715
0.946228
0.865708
0.758157
0.634486
0.507659
0.389055
0.286327
0.20295
0.138954
0.0921623
0.0593737
0.0372441
0.0227986
0.0136462
0.00800097
0.00460244
0.00260106
0.00144595
0.00079147
0.000426928
0.000227083
0.000119152
6.16874e-05
3.15106e-05
1.58773e-05
7.88787e-06
3.86115e-06
1.8607e-06
8.81818e-07
4.10474e-07
1.87394e-07
8.37606e-08
3.65719e-08
1.56431e-08
5.40996e-09
0.999999
1.00001
1
0.999965
0.999964
1.00013
1.00031
0.999949
0.998781
0.99801
1.00016
1.00658
1.01418
1.01415
0.994715
0.946228
0.865708
0.758157
0.634486
0.507659
0.389055
0.286327
0.20295
0.138954
0.0921623
0.0593736
0.0372439
0.0227984
0.0136461
0.00800097
0.00460258
0.00260134
0.00144634
0.000791935
0.000427418
0.000227555
0.000119574
6.20406e-05
3.17899e-05
1.60872e-05
8.03828e-06
3.96436e-06
1.92868e-06
9.24913e-07
4.36811e-07
2.02937e-07
9.26301e-08
4.14701e-08
1.82772e-08
6.6103e-09
0.999999
1.00001
1
0.999965
0.999964
1.00013
1.00031
0.999949
0.998781
0.99801
1.00016
1.00658
1.01418
1.01415
0.994715
0.946228
0.865708
0.758157
0.634486
0.507659
0.389055
0.286328
0.20295
0.138954
0.0921623
0.0593735
0.0372439
0.0227983
0.013646
0.00800094
0.0046026
0.00260143
0.0014465
0.000792144
0.000427655
0.000227796
0.0001198
6.22379e-05
3.19523e-05
1.62139e-05
8.13239e-06
4.0312e-06
1.97422e-06
9.54749e-07
4.55651e-07
2.14424e-07
9.94026e-08
4.53354e-08
2.04266e-08
7.62997e-09
0.999999
1.00001
1
0.999965
0.999964
1.00013
1.00031
0.999949
0.998781
0.99801
1.00016
1.00658
1.01418
1.01415
0.994715
0.946228
0.865708
0.758157
0.634486
0.507659
0.389055
0.286328
0.20295
0.138954
0.0921623
0.0593735
0.0372438
0.0227983
0.013646
0.00800091
0.0046026
0.00260146
0.00144656
0.000792232
0.000427763
0.000227913
0.000119916
6.23441e-05
3.20434e-05
1.62876e-05
8.18915e-06
4.07292e-06
2.0036e-06
9.74627e-07
4.68608e-07
2.22575e-07
1.04361e-07
4.82552e-08
2.21021e-08
8.45501e-09
0.999999
1.00001
1
0.999965
0.999964
1.00013
1.00031
0.999949
0.998781
0.99801
1.00016
1.00658
1.01418
1.01415
0.994715
0.946228
0.865708
0.758157
0.634486
0.507659
0.389055
0.286328
0.20295
0.138954
0.0921623
0.0593735
0.0372438
0.0227983
0.013646
0.0080009
0.00460259
0.00260146
0.00144658
0.000792267
0.000427811
0.000227968
0.000119973
6.23991e-05
3.20925e-05
1.6329e-05
8.22219e-06
4.09805e-06
2.02188e-06
9.874e-07
4.77195e-07
2.28145e-07
1.07853e-07
5.03738e-08
2.33549e-08
9.0939e-09
0.999999
1.00001
1
0.999965
0.999964
1.00013
1.00031
0.999949
0.998781
0.99801
1.00016
1.00658
1.01418
1.01415
0.994715
0.946228
0.865708
0.758157
0.634486
0.507659
0.389055
0.286328
0.20295
0.138954
0.0921623
0.0593735
0.0372438
0.0227983
0.013646
0.00800089
0.00460258
0.00260146
0.00144658
0.000792279
0.00042783
0.000227993
0.00012
6.24265e-05
3.21182e-05
1.63514e-05
8.24079e-06
4.11268e-06
2.03289e-06
9.95331e-07
4.82692e-07
2.31818e-07
1.10224e-07
5.18548e-08
2.42563e-08
9.56916e-09
0.999999
1.00001
1
0.999965
0.999964
1.00013
1.00031
0.999949
0.998781
0.99801
1.00016
1.00658
1.01418
1.01415
0.994715
0.946228
0.865708
0.758157
0.634486
0.507659
0.389055
0.286328
0.20295
0.138954
0.0921623
0.0593735
0.0372438
0.0227983
0.013646
0.00800088
0.00460258
0.00260146
0.00144658
0.000792283
0.000427837
0.000228003
0.000120013
6.24397e-05
3.21311e-05
1.63632e-05
8.25091e-06
4.12093e-06
2.0393e-06
1.0001e-06
4.86098e-07
2.34162e-07
1.11781e-07
5.28551e-08
2.48823e-08
9.91001e-09
0.999999
1.00001
1
0.999965
0.999964
1.00013
1.00031
0.999949
0.998781
0.99801
1.00016
1.00658
1.01418
1.01415
0.994715
0.946228
0.865708
0.758157
0.634486
0.507659
0.389055
0.286328
0.20295
0.138954
0.0921623
0.0593735
0.0372438
0.0227983
0.013646
0.00800088
0.00460257
0.00260145
0.00144658
0.000792284
0.00042784
0.000228007
0.000120018
6.24458e-05
3.21373e-05
1.63692e-05
8.25623e-06
4.12542e-06
2.04289e-06
1.00286e-06
4.88129e-07
2.356e-07
1.12763e-07
5.35033e-08
2.52989e-08
1.01438e-08
0.999999
1.00001
1
0.999965
0.999964
1.00013
1.00031
0.999949
0.998781
0.99801
1.00016
1.00658
1.01418
1.01415
0.994715
0.946228
0.865708
0.758157
0.634486
0.507659
0.389055
0.286328
0.20295
0.138954
0.0921623
0.0593735
0.0372438
0.0227983
0.013646
0.00800088
0.00460257
0.00260145
0.00144658
0.000792284
0.000427841
0.000228009
0.000120021
6.24488e-05
3.21406e-05
1.63725e-05
8.2593e-06
4.12812e-06
2.04514e-06
1.00464e-06
4.89486e-07
2.36592e-07
1.13462e-07
5.39793e-08
2.56143e-08
1.03271e-08
)
;

boundaryField
{
    upperWall
    {
        type            zeroGradient;
    }
    outlet
    {
        type            zeroGradient;
    }
    inlet
    {
        type            fixedValue;
        value           uniform 1;
    }
    lowerWall
    {
        type            fixedValue;
        value           uniform 0;
    }
    frontAndBack
    {
        type            empty;
    }
}


// ************************************************************************* //
