/*--------------------------------*- C++ -*----------------------------------*\
  =========                 |
  \\      /  F ield         | OpenFOAM: The Open Source CFD Toolbox
   \\    /   O peration     | Website:  https://openfoam.org
    \\  /    A nd           | Version:  7
     \\/     M anipulation  |
\*---------------------------------------------------------------------------*/
FoamFile
{
    version     2.0;
    format      ascii;
    class       volScalarField;
    location    "0.86";
    object      T;
}
// * * * * * * * * * * * * * * * * * * * * * * * * * * * * * * * * * * * * * //

dimensions      [0 0 0 1 0 0 0];

internalField   nonuniform List<scalar> 
45544
(
0
0
0
0
0
0
0
0
0
0
0
0
0
0
0
0
0
0
0
0
0
0
0
0
0
0
0
0
0
0
0
0
0
0
0
0
0
0
0
0
0
0
0
0
0
0
0
0
0
0
0
0
0
0
0
0
0
0
0
-3.18897e-34
0
-2.52455e-33
0
-1.04894e-32
0
-3.26496e-32
0
-6.94964e-32
0
-1.00761e-31
0
-1.13074e-31
0
-1.04831e-31
0
-6.45512e-32
0
-3.24127e-32
0
-1.35415e-32
0
-4.09048e-33
0
-1.05455e-33
0
-1.76132e-34
0
-1.42775e-35
0
0
0
0
0
0
0
0
0
0
0
0
0
0
0
0
0
0
0
0
0
0
0
0
0
0
0
0
0
0
0
0
0
0
0
0
0
0
0
0
0
0
0
0
0
0
0
0
0
0
0
0
0
0
0
0
0
0
0
0
0
0
0
0
0
0
0
0
0
0
0
0
0
0
0
0
0
0
0
0
0
0
0
0
0
0
0
0
0
0
0
0
0
0
0
0
0
0
0
0
0
0
0
0
0
0
0
0
0
0
0
0
0
2.8102e-40
1.0836e-34
9.81258e-31
2.73166e-28
6.80417e-27
1.90539e-26
-8.10369e-26
-1.50662e-24
-1.20747e-24
-4.13912e-24
-3.45764e-24
2.09422e-24
-7.12252e-24
-1.06394e-23
-1.20494e-23
-7.77235e-24
-6.71423e-24
-2.29617e-23
-1.66095e-22
1.28512e-21
-2.85102e-21
-4.43318e-21
-8.19328e-21
2.1599e-21
1.28427e-21
-3.30053e-20
-7.63841e-20
-5.35708e-20
-1.91441e-20
-3.53369e-20
-2.36167e-20
3.95206e-22
4.04851e-20
7.63148e-20
1.37001e-19
1.88732e-19
1.64357e-19
2.6093e-19
2.26749e-19
4.66026e-20
1.48337e-19
2.53637e-20
-3.21985e-19
-1.41523e-19
-2.56351e-20
1.63319e-19
4.84617e-19
6.63315e-19
5.70519e-19
1.21691e-18
6.3701e-19
-1.52195e-18
-2.76477e-18
-4.46774e-18
-5.63259e-18
-4.61119e-18
-2.76765e-18
-1.03412e-18
9.17409e-19
3.33375e-18
5.66701e-18
5.83956e-18
5.47926e-18
3.02533e-18
2.15581e-18
1.07357e-18
-1.28401e-19
-9.10531e-19
-1.2615e-18
-1.30298e-18
-1.24191e-18
-8.78197e-19
-7.27404e-19
-5.09206e-19
-1.83932e-19
-4.55289e-20
7.23848e-20
1.38251e-19
1.50496e-19
1.06746e-19
1.11265e-19
8.2012e-20
5.29593e-20
3.93049e-20
1.91117e-20
1.11557e-20
5.16954e-21
-9.73959e-22
-3.63704e-21
-3.32911e-21
-4.00592e-21
-3.50732e-21
-3.35803e-21
-2.52087e-21
-1.44215e-21
1.97417e-21
1.01246e-19
-2.0494e-17
0
0
0
0
0
0
0
0
0
0
0
0
0
0
0
0
0
0
0
0
0
0
0
0
0
0
0
0
0
0
0
0
0
0
0
0
0
0
8.91614e-124
0
-1.56865e-112
8.28433e-116
-1.79434e-107
-1.5419e-107
1.31235e-105
1.16131e-105
1.16348e-103
1.61784e-103
-9.67031e-102
-9.18255e-101
4.83035e-100
2.38902e-99
-3.6113e-99
1.20884e-98
-1.95074e-97
2.17488e-97
1.57288e-95
3.12373e-95
8.8949e-96
2.58434e-95
-2.26201e-94
1.03009e-93
-7.57567e-94
1.24094e-93
-7.42526e-93
-1.7121e-92
2.46829e-91
-1.50725e-90
1.25094e-89
-3.85167e-89
7.46243e-89
2.01238e-89
7.34111e-89
1.96867e-89
1.34313e-88
-2.1734e-88
6.15184e-88
6.46165e-88
6.47107e-88
1.55044e-87
5.19397e-88
2.74243e-87
-4.29139e-88
3.03099e-87
-5.993e-87
1.8326e-86
-1.6731e-86
3.11638e-86
-1.028e-85
-6.89775e-87
-1.09824e-85
-1.09982e-85
-3.27402e-86
-2.12636e-85
-8.48559e-86
-2.11567e-85
1.10442e-83
1.56845e-83
8.8333e-84
1.18446e-83
3.96676e-83
-1.01645e-82
6.9566e-82
3.40315e-82
3.62777e-81
2.82981e-81
-1.66616e-80
5.79853e-80
-1.00452e-79
2.01502e-79
-9.32473e-79
-7.80446e-79
-3.18932e-78
-2.79454e-78
-9.05899e-78
5.98072e-78
6.71534e-78
-5.81156e-77
4.47297e-76
-1.04754e-75
1.02311e-75
-3.13008e-75
2.08931e-75
-3.132e-75
5.31736e-76
4.74082e-75
1.3343e-75
3.95961e-75
-4.21045e-74
1.33261e-73
-9.66668e-74
8.81756e-74
-3.6409e-73
-1.26142e-73
-4.6649e-73
-1.5438e-72
4.72032e-74
-1.95429e-72
8.812e-73
-2.52764e-72
1.95495e-72
-1.06365e-72
-8.63501e-73
7.51129e-72
-5.23829e-72
8.23328e-72
-9.63826e-72
7.50087e-72
-1.9812e-71
-6.06048e-71
-4.04841e-72
-7.05369e-71
3.1411e-71
-9.59665e-71
6.70382e-71
-8.90495e-71
5.98572e-71
-6.02625e-71
1.41504e-70
-2.26646e-70
3.53391e-70
5.43926e-70
1.37226e-70
1.13039e-69
-6.98353e-70
1.63244e-69
-1.05247e-69
9.67102e-70
-5.8541e-70
-1.39916e-69
6.18776e-71
-2.10114e-69
1.45511e-69
-2.94624e-69
4.7254e-70
-6.57969e-69
4.85445e-69
-1.17113e-68
4.64474e-69
-7.71065e-69
9.62466e-69
-2.04522e-68
6.37855e-69
-5.86361e-70
8.12973e-69
-1.28984e-69
1.12129e-68
8.34188e-69
3.89412e-68
3.21183e-68
4.26433e-68
5.46275e-68
2.25259e-68
3.7474e-68
1.00041e-68
2.95885e-68
3.13564e-68
9.12979e-69
5.18541e-68
1.33496e-67
-1.61827e-68
1.38932e-67
-1.87938e-68
1.73274e-68
2.30471e-68
2.61072e-67
-1.37238e-67
4.33564e-67
-3.16018e-67
5.14932e-67
-1.83956e-67
2.1989e-67
-5.28314e-68
6.18105e-67
3.40428e-68
4.06158e-67
-2.08562e-67
1.01918e-66
-5.04971e-67
1.5494e-66
-8.32052e-67
1.84734e-66
-5.34433e-67
6.57292e-67
1.35462e-67
2.43463e-66
-7.90307e-67
3.13064e-66
-8.62675e-67
5.7637e-67
-1.58105e-68
8.77136e-67
1.33087e-67
3.57139e-66
-3.1345e-68
3.09184e-66
4.74341e-67
1.28196e-67
2.04651e-67
3.37809e-66
1.00804e-66
-2.11575e-66
1.31518e-66
-1.31701e-66
2.33708e-66
5.61665e-67
1.45951e-66
1.88799e-66
1.1813e-66
-2.53875e-67
2.48633e-66
5.94571e-67
2.66966e-66
1.2528e-66
2.76294e-66
-2.0297e-66
4.63467e-66
5.62163e-67
4.45652e-66
6.85705e-66
4.10018e-66
5.65525e-66
4.22827e-66
-1.88018e-66
3.59455e-66
2.55971e-66
5.73082e-66
-1.06213e-65
7.21014e-66
6.85768e-66
5.07811e-66
1.37467e-65
1.53708e-66
8.7091e-66
1.65733e-66
1.33176e-65
1.70373e-66
1.4985e-65
5.74117e-66
-1.33223e-65
1.65902e-65
6.14189e-66
1.60185e-65
-5.10617e-66
1.3013e-65
-3.3722e-66
2.29096e-65
-1.65506e-65
2.94318e-65
2.57773e-66
2.18623e-65
-2.60909e-66
2.28043e-65
-1.10829e-65
2.17185e-65
-5.23314e-66
2.2551e-65
-1.48831e-65
2.23857e-65
-1.5911e-65
2.3204e-65
-1.45502e-65
2.05263e-65
-1.25341e-65
1.94436e-65
-1.01909e-65
1.80768e-65
-9.88775e-66
1.56623e-65
-9.62841e-66
1.3883e-65
-7.89135e-66
1.10292e-65
-6.33784e-66
5.83234e-66
-1.06477e-65
6.77085e-66
-1.07579e-65
6.42799e-66
-3.38361e-66
3.32195e-66
-2.32091e-66
1.62477e-66
-4.236e-66
9.21463e-67
-1.37328e-66
-3.5462e-67
1.48743e-66
-3.41767e-66
-1.36979e-66
-2.98868e-66
-2.46331e-67
-3.47393e-66
3.13544e-67
-3.67189e-66
1.08562e-67
-3.38436e-66
7.11297e-67
-3.33454e-66
1.4344e-66
-3.33406e-66
1.43843e-66
-2.78015e-66
1.99044e-66
-2.8484e-66
1.33909e-66
-2.29694e-66
1.26661e-66
-1.86662e-66
1.59743e-66
-1.61022e-66
1.33147e-66
-2.04003e-66
3.32271e-67
4.9184e-66
9.95444e-66
-2.29468e-65
-1.78347e-65
-6.05449e-62
5.37164e-63
2.6243e-60
2.92431e-60
6.05819e-59
-8.41749e-59
2.04451e-56
-1.37809e-57
-3.84726e-55
-4.61738e-55
8.21162e-54
4.0064e-54
-6.78528e-52
-1.4594e-52
8.79674e-51
1.17471e-50
-1.97725e-50
-1.2467e-49
5.34056e-50
4.99893e-49
-4.61137e-49
-4.86019e-49
-1.12066e-47
3.09032e-48
-2.70347e-45
1.90361e-46
7.86791e-44
3.29945e-44
9.30931e-43
-8.10888e-43
-1.36217e-41
-1.03493e-41
-4.00463e-42
8.42203e-41
-6.03508e-41
-4.3039e-41
1.65835e-39
3.71897e-40
-4.65073e-40
1.21711e-16
-2.0002e-15
8.5064e-15
-4.71352e-13
2.51673e-11
-4.02892e-12
-2.19468e-09
6.47835e-08
5.83465e-07
1.97169e-06
3.64872e-06
4.73506e-06
5.01598e-06
5.01607e-06
4.98764e-06
4.94997e-06
4.87376e-06
4.56734e-06
3.82435e-06
2.71441e-06
1.5918e-06
7.65061e-07
2.89729e-07
8.77003e-08
1.80355e-08
1.82284e-09
-1.97073e-10
-1.26627e-10
-2.03783e-11
4.9359e-13
4.32916e-13
-1.76398e-14
-4.59567e-15
6.18246e-16
-2.192e-17
-2.43777e-18
3.76312e-19
-3.15749e-20
2.08455e-21
-1.16771e-22
6.03431e-24
-2.85887e-25
1.2926e-26
-4.5945e-28
4.80365e-30
3.70542e-31
-1.85157e-32
1.74229e-34
8.68478e-36
-8.49097e-12
7.03253e-12
-1.17117e-12
-2.33657e-12
5.34314e-12
-3.71175e-12
-7.81165e-12
8.58836e-12
3.55384e-12
5.64918e-12
7.26845e-12
3.4415e-12
5.61699e-12
-6.62824e-12
-2.89845e-13
-5.3019e-12
-8.72104e-12
-8.1651e-13
2.31909e-12
-9.61978e-12
-3.48959e-12
-1.46871e-11
-4.43718e-12
-4.25724e-12
-2.69965e-11
-3.90194e-11
-1.31392e-11
3.83943e-11
1.99483e-11
4.57168e-11
2.39785e-11
1.76846e-11
2.32633e-11
-3.11584e-11
3.51089e-11
-9.89082e-11
-1.29563e-10
-2.27978e-10
-9.36242e-11
-3.30181e-10
9.14565e-10
-1.26092e-10
3.86999e-10
1.58159e-09
-1.18397e-09
-1.15309e-09
3.83375e-10
-3.79503e-10
7.22619e-10
1.43017e-09
6.45486e-10
4.40756e-10
-1.17871e-09
-5.53065e-10
1.67098e-10
-3.4569e-10
1.10901e-09
1.28288e-09
-1.62656e-09
-1.04472e-09
1.01029e-09
-3.37418e-10
5.56017e-10
1.75436e-09
-1.29699e-09
-1.00572e-09
7.17294e-10
-3.86366e-10
-2.40301e-11
6.60082e-10
-4.29872e-11
-2.15932e-10
2.84508e-10
4.62104e-10
-1.92763e-10
9.44891e-12
1.93975e-10
-7.25675e-11
1.60698e-12
-2.58803e-12
-1.58632e-12
-7.42252e-12
-5.3218e-12
-5.98714e-12
-1.36528e-11
-1.82274e-11
-3.13863e-11
-1.50957e-11
1.25101e-12
-4.78212e-13
1.32009e-12
-1.65747e-13
-8.02853e-13
1.62014e-12
1.98619e-12
-4.07478e-12
3.64036e-12
-1.43576e-12
-5.55151e-18
0
-2.27814e-43
5.66185e-38
3.9003e-32
4.23455e-29
2.0201e-27
-1.60525e-26
-6.50167e-26
1.70411e-24
-2.04727e-24
6.08554e-24
-2.02047e-24
3.66452e-24
-1.52087e-23
-1.15229e-23
-1.20575e-23
-1.2593e-23
-1.37207e-23
-1.60375e-23
7.49276e-23
-3.85759e-22
-5.71942e-22
5.73359e-21
6.37282e-21
1.68588e-21
-5.11177e-21
1.87866e-20
5.13041e-20
4.73564e-20
-1.35591e-20
-5.69627e-21
5.2465e-20
5.71574e-20
3.88175e-20
2.57655e-20
2.95886e-20
3.32206e-20
9.66953e-20
1.03227e-19
-7.88225e-20
8.33623e-20
-3.60736e-20
-1.45528e-19
2.08172e-19
6.648e-20
1.95007e-19
1.30144e-19
9.0264e-19
1.02857e-18
1.21333e-18
1.57082e-18
-5.19517e-19
3.58378e-19
-2.98964e-18
-2.52774e-18
-6.47534e-18
-5.65361e-18
-4.89349e-18
-3.40142e-18
4.81714e-19
1.65465e-18
4.4889e-18
5.56506e-18
4.85497e-18
4.99473e-18
2.69309e-18
1.76451e-18
-2.39876e-20
-5.05201e-19
-1.54142e-18
-1.19183e-18
-1.52998e-18
-1.24353e-18
-9.33384e-19
-6.3619e-19
-3.66825e-19
-1.42298e-19
1.82121e-21
1.002e-19
1.26521e-19
1.72292e-19
1.1487e-19
8.60398e-20
7.78544e-20
5.16226e-20
3.32991e-20
1.67178e-20
8.56411e-21
1.4341e-21
-2.63189e-21
-3.6532e-21
-3.89865e-21
-3.458e-21
-3.47318e-21
-2.75808e-21
-1.77256e-21
-3.17734e-21
-2.14904e-20
0
1.71996e-18
0
1.72779e-16
6.83608e-18
-5.87419e-40
-2.64803e-16
1.68198e-15
-3.56501e-14
-5.40672e-13
1.12225e-10
-1.06466e-09
6.56373e-09
2.3674e-07
1.1586e-06
2.82238e-06
4.30331e-06
4.93527e-06
5.0305e-06
5.00209e-06
4.96638e-06
4.92836e-06
4.7601e-06
4.25833e-06
3.28908e-06
2.13819e-06
1.13601e-06
4.91496e-07
1.66798e-07
4.2254e-08
6.66693e-09
2.11402e-10
-2.06289e-10
-5.974e-11
-4.24922e-12
9.34031e-13
8.47949e-14
-1.76153e-14
3.90742e-16
1.48559e-16
-1.92063e-17
1.24411e-18
-3.74518e-20
-8.94036e-22
1.33784e-22
-9.83115e-24
4.38726e-25
-4.47791e-27
-9.49828e-28
9.05063e-29
-3.70839e-30
5.89588e-32
1.64037e-33
-6.79501e-35
2.0129e-14
-4.87377e-37
-1.12914e-10
-5.26124e-11
2.46202e-10
-1.97449e-13
2.79784e-12
3.54895e-12
6.78353e-12
5.27649e-12
1.30746e-12
1.5774e-11
5.92615e-11
-3.16782e-11
2.56687e-12
5.46101e-11
2.87248e-12
-1.45209e-12
1.50415e-12
4.09975e-13
1.41846e-12
-3.51173e-12
4.50568e-12
-2.47229e-12
1.60943e-12
-1.29182e-12
0
2.00039e-38
-3.0677e-33
-1.46179e-29
-2.2749e-27
-1.0595e-26
-7.24119e-27
-5.62116e-25
4.45435e-24
1.61054e-23
4.65674e-24
-1.33892e-23
-3.18635e-23
-2.60615e-23
-2.67587e-23
-2.78414e-23
-4.29935e-23
-5.37986e-23
-2.0958e-23
4.07364e-22
-2.93937e-21
3.30457e-21
6.29058e-21
-4.95127e-21
-2.61585e-20
1.81536e-20
8.40037e-20
8.04197e-20
-4.87585e-21
-5.31628e-20
1.61162e-20
3.70339e-21
-5.53427e-20
-1.02507e-19
-6.49678e-20
-5.49114e-20
-2.08285e-19
1.00011e-19
-1.71331e-19
1.32524e-20
-3.06532e-20
-1.8486e-19
1.57344e-19
-2.97559e-19
-5.89219e-19
-1.51821e-18
-1.26172e-18
-9.19557e-19
4.44194e-21
3.40821e-18
4.00788e-18
8.47083e-18
9.08445e-18
9.55878e-18
4.3951e-18
2.00471e-19
-5.17444e-18
-8.53912e-18
-7.95957e-18
-9.17219e-18
-8.77232e-18
-6.06471e-18
-4.45874e-18
1.0711e-18
1.72162e-18
2.81043e-18
2.6919e-18
3.03645e-18
2.26934e-18
1.76526e-18
5.78363e-19
3.74334e-19
1.35803e-19
-9.04298e-20
-3.33223e-19
-3.09315e-19
-2.65781e-19
-2.0338e-19
-1.73553e-19
-5.2564e-20
-8.87623e-20
-6.25289e-20
-3.28982e-21
-8.02218e-21
6.88367e-21
6.26847e-21
8.85616e-21
9.199e-21
7.2915e-21
5.48152e-21
2.87469e-21
3.20601e-21
8.77891e-22
1.07849e-21
6.92946e-22
-1.6432e-21
1.9124e-20
-6.73076e-19
8.39615e-15
-8.52594e-13
5.83846e-11
-2.79226e-10
-1.71262e-09
1.33233e-07
9.19534e-07
2.68919e-06
4.50562e-06
5.45306e-06
5.63037e-06
5.61473e-06
5.57214e-06
5.54281e-06
5.41357e-06
4.9803e-06
4.00296e-06
2.71172e-06
1.50664e-06
6.83331e-07
2.42246e-07
6.65329e-08
1.16128e-08
6.91229e-10
-2.6689e-10
-9.70466e-11
-9.83744e-12
1.22832e-12
2.02263e-13
-2.7714e-14
-3.85322e-16
3.40858e-16
-3.32895e-17
1.55647e-18
-4.23447e-22
-6.64567e-21
5.43765e-22
-3.50016e-23
1.55973e-24
-4.23704e-26
-4.71709e-28
1.43626e-28
-7.93921e-30
1.58722e-31
2.28e-33
-1.60611e-34
-1.24458e-36
-3.81512e-12
1.54708e-12
3.60118e-12
2.56239e-12
4.65293e-12
-1.18226e-11
-1.6143e-11
1.00403e-11
3.08934e-11
2.24032e-11
1.49255e-12
-6.39535e-13
6.7783e-13
-6.01038e-14
-7.78177e-13
1.64469e-12
8.65973e-13
-1.81119e-12
1.72848e-12
-8.36299e-13
5.91355e-41
-6.50518e-37
-5.48897e-31
-4.44075e-28
-7.17955e-27
3.78709e-26
2.75524e-25
-2.8817e-24
-6.67875e-24
-3.03888e-23
-1.44894e-23
-1.31744e-23
-1.17554e-23
-1.97705e-23
-2.94512e-23
-3.58378e-23
-3.18112e-23
-4.23969e-24
-2.2151e-22
-2.0805e-22
6.66862e-21
-1.19603e-21
-1.6501e-21
6.59767e-21
4.47582e-21
-7.41913e-20
-9.37992e-20
-1.00624e-19
-4.179e-20
-4.08467e-20
-7.52671e-20
-2.82757e-20
1.85931e-20
9.85422e-21
3.6221e-20
1.15556e-19
2.98794e-19
4.61788e-19
5.83809e-19
-1.03545e-19
3.01267e-21
-1.81942e-19
-1.01925e-18
-4.99079e-19
-8.97251e-19
-1.09939e-18
-1.64134e-18
9.11584e-19
2.08541e-18
4.38239e-18
7.11078e-18
7.39778e-18
8.21853e-18
7.22272e-18
4.24661e-18
-3.47975e-19
-5.77834e-18
-8.01431e-18
-7.76935e-18
-8.7549e-18
-5.03222e-18
-3.87011e-18
-6.07967e-19
-3.42015e-20
2.38064e-18
3.28327e-18
2.93078e-18
2.92439e-18
1.5547e-18
1.62332e-18
6.54189e-19
5.01271e-19
-5.50129e-20
-3.55205e-19
-2.66596e-19
-2.37847e-19
-1.93224e-19
-1.9684e-19
-1.21144e-19
-9.99287e-20
-4.872e-20
-2.12335e-20
-1.73138e-20
3.90516e-21
-6.11919e-22
7.27399e-21
1.06713e-20
6.75402e-21
5.24575e-21
3.01022e-21
3.13363e-21
1.03596e-21
8.14558e-22
5.06172e-22
4.93461e-23
1.44922e-20
1.58124e-19
1.72543e-10
-2.10585e-09
2.15527e-08
4.10947e-07
1.70602e-06
3.65848e-06
5.1263e-06
5.59437e-06
5.6479e-06
5.5853e-06
5.55631e-06
5.4944e-06
5.24013e-06
4.56e-06
3.37236e-06
2.06657e-06
1.0447e-06
4.15659e-07
1.32326e-07
2.95042e-08
3.62478e-09
-1.53834e-10
-1.90009e-10
-3.71334e-11
-4.47814e-13
7.45002e-13
-4.14845e-15
-1.02063e-14
9.58852e-16
-4.179e-18
-7.68715e-18
8.16015e-19
-5.82257e-20
3.62012e-21
-1.95602e-22
1.03642e-23
-5.22553e-25
2.59021e-26
-1.0613e-27
1.96225e-29
4.95641e-31
-3.80211e-32
5.28131e-34
2.10863e-35
-4.34013e-40
-3.35598e-12
-7.8824e-13
-4.3134e-12
-4.25885e-12
2.02007e-12
3.17457e-12
1.9456e-11
-3.59434e-11
-7.65634e-11
6.99197e-11
-1.2695e-12
1.24508e-12
-5.49469e-13
8.31625e-13
5.05074e-13
-2.72042e-12
3.044e-12
-1.29262e-12
7.74232e-13
-5.09895e-13
2.54594e-44
-3.39675e-15
2.09806e-12
-1.19742e-13
6.93963e-15
2.19803e-12
0
6.41624e-37
0
0
0
0
0
0
0
0
0
0
0
0
0
0
-2.20427e-38
0
-3.49237e-37
0
-5.76419e-36
0
-4.84204e-35
0
-2.46573e-34
0
-1.01852e-33
0
-3.08961e-33
0
-8.86932e-33
0
-2.00885e-32
0
-4.05203e-32
0
-8.76825e-32
0
-1.54983e-31
0
-2.37664e-31
0
-3.08063e-31
0
-3.36694e-31
0
-3.23673e-31
0
-3.04243e-31
0
-3.01231e-31
-1.69338e-35
-3.09484e-31
-1.514e-33
-3.4625e-31
-1.60354e-33
-2.51645e-31
4.54378e-32
2.90782e-31
2.74322e-31
-1.08374e-30
1.014e-30
-1.18822e-29
2.29726e-30
-4.71599e-29
3.42689e-30
-9.21654e-29
3.88924e-30
-1.26911e-28
3.60243e-30
-1.30144e-28
2.1789e-30
-9.38678e-29
1.08404e-30
-4.81103e-29
4.54544e-31
-2.09223e-29
1.39551e-31
-7.26591e-30
3.73934e-32
-2.18826e-30
5.79647e-33
-3.50555e-31
1.74929e-34
1.24949e-32
-5.92307e-35
8.37794e-33
0
-4.6708e-34
0
1.58374e-37
0
1.45356e-38
0
0
0
0
0
0
0
0
0
0
0
0
0
0
0
0
0
0
0
0
0
0
0
0
0
0
0
0
0
0
0
0
0
0
0
0
0
0
0
0
0
0
0
0
0
0
0
0
0
0
0
0
0
0
0
0
0
0
0
0
0
0
0
0
0
0
0
0
0
0
0
0
0
0
0
0
0
0
0
0
0
0
0
0
0
0
0
0
0
0
0
0
0
0
0
0
0
0
0
0
0
0
0
-3.43456e-15
-3.14165e-16
-1.04125e-15
7.251e-15
-5.9471e-32
-2.94093e-28
-1.7058e-26
-6.51073e-26
5.30334e-25
-1.57781e-24
1.58445e-23
7.9056e-23
5.52169e-23
-2.76099e-23
-9.7122e-23
-6.8802e-23
-5.99283e-23
-4.90066e-23
-1.36808e-22
-2.83709e-22
-1.91536e-22
2.58155e-21
-6.09265e-21
-2.63696e-20
1.44542e-20
-4.38264e-20
-1.14833e-19
1.25998e-19
4.06652e-19
3.58042e-19
1.40719e-19
-1.92883e-19
-5.23725e-20
-5.32488e-20
-3.63047e-19
-8.90448e-19
-8.86819e-19
-7.24277e-19
-2.565e-18
-1.30066e-18
-2.46549e-18
-9.39281e-19
-5.69923e-19
-2.04574e-19
1.75669e-18
-1.67562e-18
-1.86639e-18
-8.24873e-18
-1.31215e-17
-1.91913e-17
-2.82582e-17
-1.93995e-17
-8.62294e-18
1.52655e-17
4.5973e-17
7.41004e-17
9.16779e-17
8.85471e-17
7.66147e-17
5.05373e-17
1.23269e-17
-2.26495e-17
-7.3623e-17
-8.80331e-17
-9.28116e-17
-6.30868e-17
-5.25167e-17
-3.76796e-17
-1.23404e-17
2.96223e-18
1.45732e-17
1.76278e-17
1.6807e-17
1.73142e-17
1.62152e-17
1.26103e-17
6.68002e-18
3.85918e-18
1.13083e-18
-2.40099e-19
-1.12615e-18
-1.32859e-18
-1.78014e-18
-1.59351e-18
-1.07699e-18
-1.00342e-18
-6.26139e-19
-4.4664e-19
-2.94912e-19
-1.06001e-19
-3.46213e-20
1.52066e-20
3.02045e-20
4.78439e-20
3.82716e-20
4.11823e-20
3.01971e-20
-9.24521e-21
2.1402e-19
-6.69876e-18
1.79471e-10
0
-1.04068e-17
0
0
0
0
0
0
0
0
0
0
0
0
0
0
0
0
0
0
0
0
0
0
0
0
0
0
0
0
0
0
0
0
0
0
0
0
0
0
6.84118e-122
0
-2.09547e-110
6.44142e-114
-1.80834e-105
-2.25509e-105
3.06501e-104
-4.69865e-105
2.28521e-100
1.67901e-101
-4.03526e-98
-5.7876e-98
8.45421e-98
1.5208e-97
2.66787e-98
-7.04545e-97
-2.0937e-95
1.5549e-96
1.56973e-93
2.36624e-93
-2.29491e-93
1.20699e-92
3.24907e-93
1.83117e-91
-5.56172e-92
3.10128e-91
-9.7903e-91
3.5029e-90
5.38342e-89
-7.3957e-89
1.28269e-88
-2.47889e-87
3.30058e-87
-8.07774e-87
7.02865e-87
-7.154e-87
4.12743e-86
4.04583e-87
7.7376e-86
6.67142e-86
4.39387e-86
8.30416e-86
5.89316e-86
1.02826e-85
1.77446e-85
3.33077e-85
-4.35803e-85
8.60564e-85
-1.99737e-84
-1.20679e-85
-5.31851e-84
-8.79503e-85
-4.6082e-84
7.30147e-85
-6.25321e-85
-5.90161e-84
6.46634e-84
-8.90728e-84
4.87897e-82
7.90891e-82
5.63622e-82
1.35212e-81
3.44501e-80
3.13772e-80
8.94597e-80
5.95799e-80
2.71167e-79
1.10129e-79
-2.92628e-78
9.67765e-78
-4.53167e-78
1.70075e-77
-3.53231e-77
9.25548e-78
-2.27789e-76
-1.62733e-76
-1.86266e-76
3.64979e-76
-2.65829e-75
1.54701e-74
3.05785e-74
-2.2861e-74
1.46419e-73
-4.23048e-73
2.14956e-73
-2.31938e-73
1.57117e-73
2.81411e-73
4.86699e-73
1.96891e-72
-3.79658e-72
1.10024e-71
-8.40924e-72
1.1291e-71
-3.42687e-71
-2.1943e-71
-1.50975e-71
-6.85254e-71
2.55411e-71
-1.06482e-70
5.91445e-71
-8.81766e-71
1.04913e-70
-2.49436e-71
-1.1261e-70
3.41654e-70
-2.46757e-70
2.91586e-70
-5.48513e-70
9.78996e-71
-1.00654e-69
-4.81844e-70
1.5139e-70
-3.16106e-69
4.62751e-70
-4.46765e-69
3.64958e-69
-1.1473e-68
5.67095e-69
-1.01547e-68
8.47587e-69
-7.57867e-69
1.01495e-68
-2.72819e-69
-6.4979e-69
2.92734e-68
-5.70892e-69
1.40916e-68
-2.54691e-68
7.54329e-68
-3.68472e-68
7.37375e-68
-4.31606e-68
1.54787e-68
-2.47128e-68
-9.57575e-68
1.48937e-68
-1.43023e-67
2.85025e-68
-3.6763e-67
1.13019e-67
-5.87661e-67
3.57473e-67
-4.44814e-67
3.53685e-67
-6.63726e-67
4.09363e-67
-5.41196e-67
8.74843e-67
-1.47349e-66
1.29066e-66
-9.24933e-67
1.49536e-66
-1.13579e-66
1.54663e-66
-1.52817e-66
1.6886e-66
-8.16714e-67
2.15178e-66
-3.89003e-67
1.58772e-66
-1.77012e-66
3.30032e-66
-4.02655e-66
4.74802e-66
-1.13766e-66
3.66047e-66
-2.86449e-66
7.7111e-66
-9.46472e-66
4.23605e-66
2.4912e-66
7.30327e-67
1.68185e-65
8.36002e-66
-1.52571e-65
1.81331e-65
-7.00905e-67
1.00468e-65
1.76858e-69
6.13959e-66
-4.56563e-66
3.3278e-66
-5.04713e-66
3.25507e-65
4.51489e-66
2.25273e-65
-6.96779e-66
2.88707e-65
-2.96149e-65
6.54543e-65
-1.59337e-65
8.47519e-65
4.38521e-67
7.19247e-65
-4.35531e-65
1.05526e-64
-8.71197e-65
1.30866e-64
3.63712e-66
1.62411e-64
-1.05087e-64
2.38782e-64
1.69822e-64
1.5744e-64
1.18333e-64
9.81315e-65
9.73199e-65
4.70029e-65
6.66135e-65
4.79157e-65
9.11707e-65
5.19119e-65
1.67774e-64
1.14924e-65
8.72935e-65
1.75248e-64
-4.80161e-66
2.64094e-64
-3.45974e-65
2.43424e-64
-1.47966e-64
3.89325e-64
-3.8338e-64
5.58849e-64
-1.6982e-64
7.46806e-64
-5.17133e-64
8.83514e-64
2.37826e-64
6.81386e-64
-1.10137e-64
6.37386e-64
-4.04856e-64
6.61815e-64
-5.03629e-64
5.92976e-64
-4.94679e-64
6.49196e-64
-6.34288e-64
8.65225e-64
-4.01894e-64
8.35459e-64
-5.53127e-64
8.38844e-64
-6.68895e-64
8.24256e-64
-6.23178e-64
8.03145e-64
-5.13429e-64
7.45726e-64
-6.39796e-64
7.2043e-64
-4.06048e-64
6.00252e-64
-4.48763e-64
5.72562e-64
-6.55264e-64
5.61742e-64
-1.5033e-64
4.05823e-64
-3.64097e-64
2.59966e-64
-4.85105e-64
2.80536e-64
-3.32037e-64
1.77638e-64
-4.47299e-64
2.05836e-64
-2.68826e-64
7.75386e-65
-3.35408e-64
9.56418e-65
-2.08145e-64
-1.05585e-64
-1.39562e-64
-1.05084e-64
-2.82511e-65
-1.14623e-64
2.6734e-65
-1.8736e-64
5.05242e-65
-2.15315e-64
5.86558e-65
-2.06836e-64
7.79085e-65
-2.10383e-64
9.53037e-65
-1.80336e-64
8.29105e-65
-1.63955e-64
7.89158e-65
-1.4728e-64
7.99554e-65
-1.23756e-64
6.6873e-65
-1.13191e-64
5.42698e-65
-1.01874e-64
4.39924e-65
-7.51886e-65
4.79107e-65
-3.71541e-65
7.60699e-65
-3.98081e-65
4.27694e-65
6.17128e-66
1.47077e-65
2.01897e-65
3.18277e-65
1.511e-65
1.74759e-65
2.00059e-65
-3.56384e-66
2.00403e-65
1.08816e-65
1.41642e-64
1.36985e-64
-7.68427e-64
-1.55095e-63
2.12904e-61
2.35307e-62
1.64945e-58
-6.86993e-60
-4.77582e-57
-4.63302e-57
-3.98827e-56
1.07926e-55
-1.01999e-53
1.02254e-54
1.15774e-52
2.05129e-52
-6.56293e-51
-2.95542e-52
3.29936e-49
1.12865e-49
-3.52718e-48
-4.90863e-48
1.04189e-47
5.39228e-47
-6.28397e-48
3.45021e-47
7.80315e-47
1.92472e-46
1.13338e-45
-1.54736e-45
6.36856e-43
-2.93762e-44
-1.07092e-41
-7.1988e-42
-1.28351e-40
1.07723e-40
1.3123e-39
1.14646e-39
5.50436e-40
-2.83775e-39
8.04488e-39
-1.53866e-39
-2.06105e-39
3.67032e-12
-3.70102e-12
1.69221e-12
-3.22349e-13
-8.95792e-13
-1.17846e-12
7.38023e-15
-5.0915e-15
1.9354e-14
6.68372e-11
1.35972e-11
1.35843e-10
-1.50653e-13
-3.60378e-13
-2.2819e-09
2.62068e-08
4.62745e-07
1.90424e-06
4.08009e-06
5.71307e-06
6.23854e-06
6.30071e-06
6.22991e-06
6.20171e-06
6.13059e-06
5.84731e-06
5.08337e-06
3.76048e-06
2.30756e-06
1.16694e-06
4.65103e-07
1.47595e-07
3.30566e-08
4.06061e-09
-1.78794e-10
-2.13082e-10
-4.17747e-11
-5.44647e-13
8.24644e-13
-3.57398e-15
-1.13061e-14
1.04062e-15
-2.64204e-18
-8.5516e-18
8.93975e-19
-6.27604e-20
3.81079e-21
-2.04838e-22
1.07652e-23
-5.49178e-25
2.72727e-26
-1.12843e-27
2.13485e-29
4.86192e-31
-3.94388e-32
5.59612e-34
2.11976e-35
-1.17602e-36
-2.49417e-36
-1.18923e-38
-4.04588e-12
-1.27065e-12
-3.92695e-10
6.25349e-12
-9.86327e-12
-5.50761e-12
8.77826e-13
-4.02705e-12
-1.62914e-12
2.26076e-12
-5.09295e-12
-2.93197e-12
-9.31438e-12
-5.15547e-12
-4.77177e-12
-7.4086e-12
1.50635e-11
5.63528e-12
1.41203e-11
1.44539e-11
1.05125e-11
1.16518e-11
-6.78569e-12
6.13198e-12
-1.25158e-11
7.95569e-12
1.61802e-11
-8.14811e-12
-3.54474e-12
1.99789e-11
-3.20838e-11
1.64949e-11
-3.54499e-11
-2.24535e-11
-1.21104e-10
8.85221e-12
3.08769e-11
-4.11933e-11
2.1358e-10
1.35842e-09
-1.68418e-09
-4.99849e-10
7.74557e-11
-1.65386e-09
2.66303e-09
3.21417e-09
-9.65428e-10
1.19088e-09
-1.48616e-09
-3.58998e-09
2.27574e-09
1.79727e-09
2.03384e-10
2.90872e-09
-2.67095e-09
-3.66145e-09
1.97836e-09
-4.14411e-10
9.77664e-10
3.59192e-09
-1.59936e-09
-1.64967e-09
6.63106e-10
-4.5979e-10
-1.56427e-10
7.24376e-10
1.46874e-10
-4.79302e-10
6.34005e-10
8.58978e-10
-7.48956e-11
3.54566e-10
-9.87059e-12
-1.90524e-11
5.11211e-11
0
-5.97514e-13
-5.46741e-12
-2.38129e-12
2.73113e-12
2.6373e-12
3.13915e-11
-4.64493e-11
-9.00123e-11
5.10086e-11
1.2732e-12
-2.70185e-12
2.20288e-12
-1.10417e-12
-2.00103e-13
6.24202e-13
-5.65419e-13
4.01788e-13
-1.18241e-12
-8.53377e-13
1.99145e-12
-1.6211e-12
9.55682e-13
-7.12035e-13
4.74472e-39
-8.93107e-37
0
8.48049e-12
1.17651e-11
-1.92455e-12
3.53968e-10
1.30098e-09
8.16315e-11
5.99676e-13
1.16286e-12
1.03234e-10
4.04838e-11
1.60621e-12
-8.34756e-13
-1.21018e-17
-8.40137e-35
2.07122e-34
2.69647e-16
-1.45452e-14
-5.46483e-33
1.69344e-16
-6.72655e-30
-6.21913e-27
-3.89531e-27
1.29811e-25
6.42697e-26
-7.96514e-24
-2.35374e-23
-1.44795e-22
-5.45918e-23
-8.27564e-23
-2.5422e-23
-5.53459e-23
-6.90478e-23
-1.00802e-22
-8.68516e-23
1.5158e-22
-8.63573e-22
-4.31145e-21
3.43094e-20
1.04216e-20
1.52339e-20
5.24326e-20
-2.66092e-20
-3.64696e-19
-3.10339e-19
-2.95657e-19
-8.24992e-20
-1.21039e-19
-2.70784e-19
-7.7695e-20
7.8969e-20
-1.51583e-19
-3.69725e-19
-5.99477e-19
3.98501e-19
1.41285e-18
1.16577e-18
-2.26972e-18
-7.00118e-19
-1.58192e-18
-4.8526e-18
-6.53532e-19
-1.21481e-18
-7.54186e-18
-1.49356e-17
-8.51876e-18
-1.75081e-17
-1.07782e-17
5.3321e-18
2.06485e-17
5.35532e-17
9.14866e-17
1.00728e-16
9.86347e-17
6.18518e-17
2.27024e-17
-4.77514e-18
-4.44608e-17
-6.16178e-17
-8.24813e-17
-7.64592e-17
-6.55357e-17
-4.65911e-17
-2.10789e-17
-3.23971e-18
9.89925e-18
1.35332e-17
2.20551e-17
1.8038e-17
1.75652e-17
1.3048e-17
7.94344e-18
5.28389e-18
2.36771e-18
4.67468e-19
-9.48253e-19
-1.49132e-18
-1.60284e-18
-1.51544e-18
-1.25259e-18
-1.07121e-18
-7.02454e-19
-5.44682e-19
-3.58992e-19
-1.70472e-19
-7.64144e-20
-5.202e-21
2.17537e-20
4.10424e-20
3.52744e-20
3.99469e-20
3.42814e-20
2.23541e-20
1.5797e-19
2.37705e-18
-1.94224e-26
5.22335e-26
3.1634e-27
1.15493e-30
3.92023e-10
-3.43855e-10
-1.38158e-09
1.51639e-07
1.033e-06
2.99632e-06
5.02513e-06
6.08078e-06
6.2831e-06
6.26901e-06
6.21693e-06
6.18377e-06
6.04077e-06
5.55077e-06
4.46171e-06
3.02522e-06
1.68127e-06
7.62975e-07
2.70949e-07
7.4195e-08
1.2931e-08
7.7029e-10
-3.01566e-10
-1.08801e-10
-1.10601e-11
1.35939e-12
2.25022e-13
-3.02381e-14
-4.81613e-16
3.7637e-16
-3.61735e-17
1.61878e-18
4.56408e-21
-7.3712e-21
6.1053e-22
-3.88966e-23
1.72967e-24
-4.81375e-26
-4.09035e-28
1.47556e-28
-8.31764e-30
1.69447e-31
2.19686e-33
-1.66912e-34
4.59449e-41
2.05815e-13
-1.70346e-10
2.75095e-10
1.46043e-13
0
4.34469e-12
1.17897e-12
7.18583e-12
-1.29774e-11
-1.09299e-11
1.76878e-11
-1.59195e-12
1.37582e-10
7.87133e-11
1.85736e-13
-1.05148e-13
5.82912e-13
-7.29176e-13
-2.63137e-13
5.28577e-13
-2.93465e-13
1.74655e-12
-2.23317e-12
1.02154e-12
-1.11972e-13
-1.8469e-13
-9.97722e-14
-7.52898e-39
-2.06908e-23
7.8386e-29
-3.15e-13
-9.12363e-14
3.33656e-13
-1.5352e-12
-1.50434e-13
-4.33926e-11
5.3246e-11
2.40981e-11
1.87223e-13
9.45817e-12
6.2824e-12
4.23226e-35
1.47204e-33
-7.97681e-32
3.5853e-31
6.17708e-29
-2.43791e-27
4.9888e-26
-9.08751e-25
1.54325e-23
-2.82384e-22
5.80734e-21
-1.05246e-19
1.74695e-18
-1.95572e-17
6.2811e-17
1.40776e-15
-2.13141e-14
4.22276e-14
1.31935e-12
-2.97925e-12
-7.1038e-11
-2.95086e-10
-9.19112e-12
7.26857e-09
5.14748e-08
2.11655e-07
6.36654e-07
1.51222e-06
2.8865e-06
4.46184e-06
5.79551e-06
6.48243e-06
6.68634e-06
6.73526e-06
6.77816e-06
6.81522e-06
6.71625e-06
5.90754e-06
3.85824e-06
1.52034e-06
-1.41645e-17
-9.29676e-19
5.52828e-21
-2.12084e-20
-1.69444e-20
-2.18755e-20
-3.98859e-20
-5.77979e-20
-7.3933e-20
-8.67577e-20
-1.0809e-19
-1.90626e-19
-2.01945e-19
-9.24373e-20
1.96261e-19
4.15255e-19
1.11763e-18
1.04894e-18
1.77325e-18
3.29609e-18
3.67666e-18
3.3818e-18
4.6099e-18
3.76624e-18
3.6485e-18
1.6715e-18
-2.8535e-18
-1.77254e-17
-2.20262e-17
-3.03776e-17
-4.21854e-17
-3.76474e-17
-4.20051e-17
-2.55313e-17
3.48617e-18
3.06157e-17
8.11772e-17
1.03857e-16
1.59534e-16
1.56638e-16
1.58319e-16
7.3562e-17
6.60827e-18
-4.78793e-17
-1.18699e-16
-1.46177e-16
-1.48213e-16
-9.11366e-17
-8.17763e-17
-6.26094e-17
-1.00467e-17
2.90479e-18
9.58234e-18
1.15788e-17
1.02554e-17
8.33241e-18
9.14104e-18
8.5442e-18
6.11231e-19
-5.23095e-18
-4.39559e-18
8.20033e-23
-6.79782e-23
-1.7471e-18
-6.23345e-19
-1.45208e-19
-1.15121e-18
-6.21979e-19
-1.92579e-19
-3.66429e-19
-6.5273e-20
3.2503e-19
8.65953e-20
3.63735e-19
1.68202e-19
6.83849e-20
-2.95173e-20
-6.37403e-20
-1.01671e-19
2.06416e-20
5.95559e-22
-3.91196e-22
2.30482e-22
3.63418e-22
3.22887e-22
2.24662e-22
2.00141e-22
1.80699e-22
-5.14805e-13
7.05211e-13
-8.38671e-13
1.0625e-12
-3.22576e-13
-9.22565e-13
9.72059e-14
2.76241e-11
-6.7133e-11
-5.73616e-11
-1.20462e-11
-1.39827e-11
-4.70768e-12
1.05311e-12
-3.67222e-34
2.07665e-33
4.18561e-31
-1.64832e-29
2.01783e-28
2.18591e-27
-1.61965e-25
4.65773e-24
-9.8864e-23
1.64102e-21
-2.22822e-20
1.46209e-19
1.17242e-18
-5.48115e-17
7.4397e-16
-2.81535e-15
-4.10255e-14
4.5535e-13
1.48326e-12
-2.18343e-11
-1.65572e-10
-3.59147e-10
1.76239e-09
2.11482e-08
1.09568e-07
3.80524e-07
1.02069e-06
2.13984e-06
3.67665e-06
5.18713e-06
6.20141e-06
6.61947e-06
6.70894e-06
6.75259e-06
6.80913e-06
6.80356e-06
6.4599e-06
4.98094e-06
2.61219e-06
-1.32525e-43
2.08654e-10
-1.23455e-18
1.939e-19
4.34529e-21
-1.80718e-20
-1.81039e-20
-3.86318e-20
-4.58916e-20
-6.37037e-20
-7.45283e-20
-1.16684e-19
-1.41322e-19
-1.72319e-19
-9.84906e-20
2.56085e-19
2.93518e-19
1.90468e-19
1.34027e-18
1.69296e-18
1.30865e-18
2.99843e-18
3.58689e-18
3.85213e-18
3.92452e-18
3.12736e-18
1.1166e-18
-7.61757e-19
-1.15337e-17
-1.40916e-17
-2.4082e-17
-3.83748e-17
-4.27426e-17
-4.10423e-17
-4.59928e-17
-2.31472e-17
-1.16295e-18
6.01876e-17
1.20622e-16
1.19502e-16
1.3493e-16
1.10529e-16
1.08212e-16
7.23507e-17
-6.12831e-19
-5.12652e-17
-1.08382e-16
-1.47379e-16
-1.36479e-16
-6.37638e-17
-4.6441e-17
-1.04578e-17
7.72953e-18
1.41502e-17
1.58105e-17
1.7332e-17
3.92386e-18
9.403e-19
4.38559e-18
-7.74e-19
-8.76137e-19
-6.44981e-19
5.43896e-19
-3.09072e-18
2.97954e-19
9.20861e-19
-6.42853e-20
1.11854e-19
3.81569e-19
-2.51399e-20
-3.20622e-19
2.41441e-20
-1.35475e-19
-6.59082e-21
3.43142e-22
8.31848e-20
1.30897e-20
6.25676e-20
-2.52987e-20
-3.12713e-21
1.74661e-21
6.24571e-22
-4.73466e-24
2.26772e-22
2.4348e-22
2.53377e-22
1.72631e-22
1.50321e-22
-1.97239e-23
1.80716e-23
-1.50622e-23
3.07335e-23
1.05135e-23
-5.78485e-25
1.21801e-24
-9.61988e-25
3.97688e-26
4.11201e-25
2.79561e-07
2.71218e-09
-1.02974e-09
-3.60914e-09
6.18751e-08
7.39438e-07
4.0215e-12
-8.72206e-12
-2.99388e-12
-6.35915e-14
-6.1737e-13
1.13236e-12
-3.18916e-14
0
0
0
0
0
0
0
-1.3512e-37
-1.67878e-36
-2.43554e-36
-2.29009e-35
-2.0336e-35
-6.41133e-35