/*--------------------------------*- C++ -*----------------------------------*\
  =========                 |
  \\      /  F ield         | OpenFOAM: The Open Source CFD Toolbox
   \\    /   O peration     | Website:  https://openfoam.org
    \\  /    A nd           | Version:  7
     \\/     M anipulation  |
\*---------------------------------------------------------------------------*/
FoamFile
{
    version     2.0;
    format      ascii;
    class       volScalarField;
    location    "0.2";
    object      T;
}
// * * * * * * * * * * * * * * * * * * * * * * * * * * * * * * * * * * * * * //

dimensions      [0 0 0 1 0 0 0];

internalField   nonuniform List<scalar> 
5936
(
0.50939
0.913127
0.999042
0.982364
1.00586
1.01592
1.00201
1.00688
1.00016
1.00087
0.999826
0.999599
0.999883
0.999688
0.999947
0.999864
0.999961
0.999924
0.999968
0.999934
0.999969
0.999928
0.999959
0.999916
0.999962
0.999911
0.999965
0.99991
0.999952
0.999903
0.999959
0.999906
0.99996
0.999908
0.999957
0.999911
0.999967
0.999914
0.999952
0.999905
0.999954
0.999899
0.999966
0.999912
0.999951
0.999902
0.999955
0.999898
0.999959
0.999913
0.999955
0.999917
0.999973
0.999928
0.999969
0.999922
0.999954
0.999903
0.999959
0.999902
0.999965
0.999907
0.999952
0.999902
0.999958
0.999905
0.99996
0.999907
0.999957
0.999911
0.999974
0.999919
0.99996
0.999909
0.999952
0.999892
0.999957
0.999895
0.999948
0.999897
0.999953
0.999903
0.999958
0.999911
0.999948
0.999912
0.999963
0.999919
0.999971
0.999921
0.999939
0.999897
0.999936
0.999894
0.999891
0.999882
0.999818
0.999842
0.999876
0.116259
-0.00310568
-0.000234556
4.74801e-05
2.64343e-06
-3.82826e-07
-3.57157e-08
2.05527e-10
1.31407e-10
5.0845e-12
-1.02189e-14
-6.91449e-15
-2.4443e-16
-2.66213e-18
7.91164e-20
4.63989e-21
1.00165e-22
5.82781e-25
-3.43256e-26
-1.11698e-27
-1.70846e-29
-2.15762e-32
5.03214e-33
1.3611e-34
-3.00561e-52
4.2864e-36
-1.6273e-34
-2.12779e-32
-2.80561e-31
2.47699e-30
-2.09047e-29
5.99448e-27
1.4636e-25
2.79817e-25
2.40909e-24
-1.38224e-22
-1.57179e-21
-7.79737e-21
-6.45135e-20
-7.1946e-20
-2.87665e-19
8.09988e-19
-1.31961e-18
6.04776e-18
3.3327e-17
2.11652e-17
1.17416e-16
1.9266e-16
1.45062e-16
1.38565e-16
1.00178
1.00124
0.994107
0.997663
0.997691
0.996205
1.01823
1.00905
1.02288
1.0215
0.972597
0.991106
0.863487
0.901104
0.705299
0.754836
0.518351
0.573593
0.353185
0.399949
0.227807
0.262355
0.139796
0.163689
0.0805833
0.0963018
0.0451934
0.054422
0.0242383
0.0295849
0.0123838
0.0153356
0.00619402
0.00772517
0.00293157
0.00372246
0.00136623
0.00173746
0.000645233
0.000816932
0.00028092
0.000362845
0.000121939
0.000157874
5.11943e-05
6.70586e-05
2.06275e-05
2.72295e-05
8.71017e-06
1.13982e-05
3.46675e-06
4.60686e-06
1.36162e-06
1.81738e-06
5.36602e-07
7.15475e-07
2.02737e-07
2.73251e-07
7.69827e-08
1.03858e-07
2.91976e-08
3.92851e-08
1.08538e-08
1.46792e-08
3.91949e-09
5.33844e-09
1.424e-09
1.94031e-09
4.91715e-10
6.74995e-10
1.75386e-10
2.39693e-10
6.13602e-11
8.43537e-11
2.04745e-11
2.83371e-11
7.06537e-12
9.73921e-12
2.32835e-12
3.24722e-12
7.54915e-13
1.05363e-12
2.56582e-13
3.56829e-13
8.30345e-14
1.1678e-13
2.78307e-14
3.91527e-14
8.94741e-15
1.29085e-14
3.05014e-15
4.48419e-15
1.20113e-15
1.80539e-15
4.3335e-16
2.04962e-16
6.58577e-16
6.66013e-36
1.63784e-16
0.0134483
-0.00159516
5.86205e-05
1.54984e-05
-2.81481e-07
-1.50853e-07
-4.7869e-09
3.52362e-10
3.13283e-11
5.07013e-13
-2.12394e-14
-1.50785e-15
-3.026e-17
1.90065e-20
2.30626e-20
7.55065e-22
1.05573e-23
-7.80044e-26
-7.10709e-27
-1.5064e-28
-1.36995e-30
1.89431e-32
8.859e-34
-0.000946693
2.05149e-35
2.47273e-16
3.39009e-35
2.73862e-34
9.47917e-32
2.22367e-30
-3.76705e-29
-3.15989e-28
-4.00491e-26
-2.01837e-25
-1.71341e-24
1.22606e-23
6.92719e-22
2.61177e-21
2.97343e-20
6.1027e-20
1.60679e-19
1.66391e-19
-3.2942e-19
1.60594e-19
2.98005e-17
1.41914e-17
3.98801e-17
1.72922e-16
1.9188e-16
0.000155339
0.0664531
1.02252e-05
0.457241
0.000137859
5.42616e-05
-6.12171e-07
-5.46144e-07
-2.20979e-08
1.14552e-09
1.25196e-10
2.72293e-12
-7.04324e-14
-6.35362e-15
-1.55081e-16
-5.33935e-19
9.30127e-20
3.50362e-21
5.60532e-23
-1.39644e-25
-3.22479e-26
-7.5029e-28
-8.43658e-30
6.23382e-32
4.18701e-33
9.15505e-35
-3.64244e-35
1.24317e-31
2.83847e-30
-5.51987e-29
-3.63719e-28
-4.97524e-26
-2.58861e-25
-2.42769e-24
1.35183e-23
8.86698e-22
3.26736e-21
3.90658e-20
8.15065e-20
2.11717e-19
2.54579e-19
-4.73415e-19
5.81342e-19
4.47115e-17
2.33051e-17
6.47514e-17
2.58697e-16
2.83799e-16
4.53827e-35
-1.22424e-06
-1.38251e-07
-2.85967e-10
4.52378e-10
2.29555e-11
7.34303e-14
-2.54761e-14
-1.14154e-15
-1.51645e-17
2.5657e-19
2.04135e-20
5.00847e-22
4.30606e-24
-1.31071e-25
-5.43942e-27
-9.08706e-29
-3.71282e-31
2.13659e-32
6.40951e-34
-2.71722e-32
-2.8325e-31
3.41615e-30
-2.49633e-29
7.46884e-27
1.88433e-25
3.39722e-25
3.86446e-24
-1.69856e-22
-2.03218e-21
-9.89259e-21
-8.82652e-20
-9.38382e-20
-3.90865e-19
1.14945e-18
-1.80582e-18
1.02868e-17
4.99447e-17
3.352e-17
1.78235e-16
2.8877e-16
2.25629e-16
-0.00560245
-0.0053558
-2.83225e-34
0.596811
-0.00110521
0.95726
1.00255
0.985812
1.00461
1.00853
1.00163
1.00463
1.00035
1.00141
1.0002
1.00067
1.00029
1.00071
1.00029
1.00079
1.00028
1.00076
1.0003
1.00076
1.00029
1.00081
1.00027
1.00078
1.00031
1.00077
1.0003
1.00081
1.00029
1.0008
1.00031
1.00079
1.00027
1.00081
1.00031
1.00078
1.00032
1.00083
1.00029
1.00085
1.00033
1.00079
1.00032
1.00085
1.00031
1.00079
1.00033
1.00079
1.00028
1.00082
1.00027
1.00076
1.00029
1.00077
1.00029
1.0008
1.00027
1.00078
1.0003
1.00077
1.0003
1.00081
1.00029
1.0008
1.0003
1.00079
1.00026
1.0008
1.00028
1.00075
1.00029
1.00081
1.00029
1.00078
1.00033
1.00078
1.00033
1.00085
1.00033
1.00083
1.00035
1.00079
1.00033
1.00085
1.00031
1.00078
1.00039
1.0008
1.00034
1.00082
1.00055
1.00081
1.00099
1.0012
1.00107
-7.17443e-34
0.00159085
5.78094e-05
0.260809
1.44775e-05
3.08243e-07
-8.89267e-08
-5.6265e-09
1.84537e-11
1.49643e-11
5.70442e-13
5.01067e-15
-4.35424e-16
-1.8005e-17
-3.29876e-19
8.42534e-22
2.53055e-22
7.30024e-24
9.18309e-26
-8.11406e-28
-5.84136e-29
-1.13066e-30
-9.18712e-33
1.08839e-34
-3.64817e-32
-0.00298469
-0.00433017
-0.00312669
1.20867e-35
4.6682e-16
8.12981e-16
3.36536e-06
1.12397e-05
1.91879e-06
0.533004
-2.03561e-31
1.35629e-30
-1.98102e-29
9.91551e-27
3.22413e-25
4.45314e-25
8.95338e-24
-2.34206e-22
-3.67159e-21
-1.50601e-20
-1.69918e-19
-1.79391e-19
-7.41006e-19
2.0513e-18
-2.96239e-18
2.58618e-17
8.64348e-17
7.00825e-17
3.67232e-16
5.34962e-16
3.65169e-16
7.09265e-16
0.0516411
0.189568
0.0226419
-0.000124789
-0.000717681
2.28851e-05
3.99363e-05
3.91465e-05
0.995901
0.997991
1.00009
0.996328
1.01481
1.00764
1.01748
1.02421
0.970378
1.00061
0.866713
0.92251
0.706157
0.774223
0.523936
0.594949
0.358599
0.417745
0.232856
0.276393
0.142655
0.171712
0.0841455
0.10305
0.047029
0.0584882
0.0250729
0.0315136
0.0131025
0.0166259
0.00647363
0.0082896
0.00313238
0.00404515
0.00147087
0.00192551
0.000662421
0.000869076
0.000295175
0.000392393
0.000128882
0.00017122
5.45166e-05
7.2907e-05
2.2304e-05
3.03057e-05
9.28311e-06
1.2465e-05
3.73574e-06
5.05969e-06
1.5158e-06
2.05911e-06
5.85129e-07
8.01314e-07
2.20005e-07
3.02115e-07
8.69171e-08
1.18673e-07
3.21012e-08
4.45005e-08
1.16978e-08
1.61984e-08
4.40691e-09
6.09698e-09
1.56953e-09
2.18161e-09
5.47033e-10
7.68422e-10
1.96547e-10
2.72861e-10
6.84441e-11
9.55099e-11
2.32547e-11
3.28786e-11
7.99097e-12
1.11987e-11
2.64725e-12
3.73141e-12
8.79469e-13
1.24873e-12
2.91328e-13
4.09754e-13
9.61406e-14
1.35966e-13
3.36359e-14
4.71327e-14
1.18124e-14
1.65646e-14
4.85653e-15
6.89771e-15
0.780414
7.36383e-35
0.830388
-1.02893e-33
-1.0527e-25
-6.97955e-26
8.25018e-05
-1.85784e-33
3.31216e-35
4.53867e-25
-1.59965e-07
-2.66108e-08
-7.31909e-10
4.47164e-11
3.25886e-12
7.65803e-14
-9.80759e-16
-9.77861e-17
-2.70267e-18
-2.59559e-20
9.22832e-22
4.5642e-23
9.74695e-25
3.73896e-27
-2.85287e-28
-8.89051e-30
-1.20788e-31
-1.3903e-34
-5.84473e-32
-5.10602e-28
-1.93332e-28
6.61807e-30
4.68438e-30
2.23764e-31
6.02873e-30
3.18882e-31
-1.04206e-28
1.57263e-26
-1.48073e-07
-5.03841e-25
-4.31258e-24
1.11565e-23
1.41397e-21
5.44676e-21
6.57555e-20
1.71151e-19
3.84201e-19
7.15798e-19
-1.33763e-18
3.50962e-18
8.9738e-17
3.75027e-17
1.43121e-16
4.84576e-16
5.15006e-16
-1.98216e-08
-1.56736e-18
-6.95185e-17
-1.99232e-33
-1.27026e-15
2.15021e-15
3.57385e-14
7.60772e-16
5.17664e-16
9.68174e-17
1.25205e-16
3.44005e-17
-4.41495e-18
2.97337e-18
-1.03103e-18
-2.52719e-19
-2.35441e-19
-2.20441e-20
-5.07371e-21
2.89681e-34
-5.66999e-32
-5.33654e-30
-2.2564e-28
-1.08738e-27
5.12844e-25
2.95742e-23
8.50649e-22
-5.25415e-21
7.17082e-16
6.93341e-16
1.98608e-16
5.5729e-17
1.2564e-16
4.03288e-18
-1.688e-18
9.15646e-19
5.44839e-19
2.38865e-19
9.68253e-20
7.35834e-21
2.04544e-21
1.95567e-23
-6.4987e-24
-1.52708e-28
-2.71407e-33
-6.05064e-31
-3.9365e-29
-9.62821e-28
3.45738e-26
4.40473e-24
1.88629e-22
2.40214e-21
-1.56402e-19
-1.16666e-17
-3.61046e-16
-5.33899e-16
3.42908e-13
1.1792e-11
9.24331e-11
-3.39105e-09
-8.154e-08
-6.49049e-25
2.20281e-12
4.4829e-11
-2.26172e-10
-2.23505e-07
-3.09466e-31
-3.60287e-22
-4.46839e-29
1.25574e-23
6.44218e-25
5.61504e-05
-1.40445e-25
0.994791
1.00651
1.00341
1.00333
1.00559
1.00028
1.00015
0.999473
0.997925
0.999671
0.997896
0.999918
0.998441
0.999991
0.998685
1.00006
0.998768
1.0001
0.998888
1.00006
0.998897
1.00014
0.998887
1.00009
0.998906
1.00006
0.998849
1.00013
0.99886
1.00006
0.998861
1.00005
0.998773
1.00007
0.998692
0.999974
0.998751
1.00001
0.998666
1.00005
0.998809
1.00003
0.998829
1.00011
0.998809
1.0001
0.998925
1.00006
0.998857
1.0001
0.998862
1.00012
0.998938
1.00007
0.998924
1.00015
0.998902
1.0001
0.998916
1.00006
0.998853
1.00014
0.998868
1.00008
0.998901
1.0001
0.998842
1.00013
0.998927
1.00008
0.998919
1.00009
0.998845
1.00009
0.998876
1.00001
0.998884
1.00007
0.998769
1.00005
0.998867
0.999909
0.99877
1.00015
0.998899
0.999897
0.999138
0.999067
0.99738
0.998177
6.54094e-29
4.30096e-15
-4.48894e-22
3.25589e-15
1.56199e-31
-1.18158e-24
-4.30292e-18
-3.84073e-08
2.42775e-07
3.22765e-08
-1.15131e-08
-5.12873e-10
2.6366e-12
1.33776e-15
9.05686e-13
1.37859e-15
3.47047e-14
2.09409e-14
-6.08795e-33
-3.88432e-17
-1.763e-17
-4.91292e-17
-1.47154e-17
1.27605e-15
-1.2112e-19
-1.67497e-21
2.4514e-23
1.76374e-24
3.5253e-26
2.41641e-28
-8.51227e-30
-2.81241e-31
2.01027e-06
1.14832e-06
2.97045e-12
2.73099e-12
5.8004e-31
1.72019e-31
7.11844e-25
9.89036e-25
-1.48721e-24
-2.78593e-30
2.53742e-23
1.93437e-26
3.05325e-26
-2.16789e-25
1.00888e-29
6.56916e-30
3.39948e-05
8.69885e-05
-1.10915e-23
3.5798e-23
1.49674e-30
-3.54544e-28
5.87931e-24
1.51041e-23
-6.91897e-22
-8.75859e-21
-3.22419e-20
-4.09683e-19
-4.65494e-19
-1.92298e-18
5.017e-18
-6.29849e-18
8.04961e-17
2.06056e-16
1.97507e-16
1.01434e-15
1.29379e-15
1.93742e-15
-3.36879e-08
-3.31354e-08
0.999331
0.996584
1.00893
1.00376
1.01774
1.02286
0.98253
1.0076
0.89548
0.945363
0.739989
0.809417
0.554743
0.62794
0.38723
0.448371
0.254374
0.299611
0.157404
0.189343
0.0932165
0.113649
0.0529178
0.0652033
0.028452
0.0356899
0.0146584
0.0185713
0.00732098
0.0093953
0.00355403
0.00460259
0.0016623
0.00216908
0.000761534
0.000997369
0.000342517
0.000453381
0.000146812
0.00019579
6.25004e-05
8.35991e-05
2.62555e-05
3.5487e-05
1.0768e-05
1.44993e-05
4.34789e-06
5.9342e-06
1.75209e-06
2.3846e-06
6.89601e-07
9.46798e-07
2.64456e-07
3.65349e-07
1.0088e-07
1.3798e-07
3.8024e-08
5.23868e-08
1.41017e-08
1.95698e-08
5.17902e-09
7.17989e-09
1.86479e-09
2.59526e-09
6.60481e-10
9.2837e-10
2.28728e-10
3.20282e-10
8.01918e-11
1.12304e-10
2.82084e-11
3.97576e-11
9.52486e-12
1.34566e-11
3.21131e-12
4.55286e-12
1.05604e-12
1.50431e-12
3.52832e-13
4.99392e-13
1.15619e-13
1.65137e-13
3.96489e-14
5.58432e-14
1.53069e-14
2.10008e-14
1.983e-13
6.98673e-13
1.35801e-13
1.20729e-15
1.96091e-15
1.42902e-29
-2.5086e-33
1.98211e-15
2.65789e-16
-0.00204306
-7.87665e-33
0.92609
-6.84769e-08
4.29075e-15
-4.25461e-33
-3.11546e-18
-8.03381e-19
1.9446e-15
6.35038e-12
-9.1217e-09
-2.83905e-09
-2.0005e-09
-5.42133e-11
1.69174e-17
-5.30218e-19
-1.63581e-20
-4.08833e-23
8.83956e-24
2.81633e-25
3.66026e-27
-1.39523e-29
-1.7678e-30
-6.05932e-32
0.00933838
1.87683e-15
8.51766e-06
6.32347e-06
4.65418e-21
3.16472e-21
0.959864
-2.84659e-28
6.83413e-25
2.2723e-19
1.57535e-19
1.22923e-20
-5.80189e-19
1.66804e-20
4.96026e-19
9.51699e-19
2.33399e-18
-4.19942e-18
1.48631e-17
2.38675e-16
8.79183e-17
4.22554e-16
1.85454e-15
0.0769197
0.0423207
7.30888e-15
-2.49253e-29
2.59765e-05
5.88209e-05
2.17837e-05
1.43265e-15
2.71085e-16
2.99295e-16
1.08224e-16
-9.47104e-18
7.28564e-18
8.25872e-31
-1.18466e-30
5.83508e-16
1.2958e-16
3.33699e-16
-0.00331121
0.000438849
-0.00373188
1.8106e-17
0.684679
-5.476e-18
3.03206e-18
1.34548e-18
-6.9731e-30
3.38499e-29
1.86438e-26
1.16552e-24
2.7489e-23
-6.26709e-22
-2.90827e-10
-3.73151e-32
-0.000388631
-0.00123333
-8.9871e-05
-4.20654e-28
0.787311
-2.22308e-32
-7.18371e-20
1.65381e-27
1.68989e-25
-1.72867e-31
6.73184e-24
-1.58971e-11
4.16819e-23
-8.99627e-21
-9.91145e-32
-1.19615e-20
6.76442e-19
-1.62105e-23
-5.62652e-29
9.76357e-25
-4.60298e-20
-2.69177e-18
-6.62494e-19
0.323231
9.52512e-15
1.00636
1.00553
1.01389
0.999725
1.00437
0.997134
0.99761
0.996582
0.995392
0.996656
0.995228
0.996647
0.995176
0.996628
0.995048
0.996713
0.995161
0.996593
0.995218
0.996637
0.995124
0.996568
0.995226
0.996631
0.99519
0.996684
0.995178
0.996599
0.995254
0.996466
0.995273
0.996748
0.995084
0.996651
0.99546
0.996619
0.995132
0.996775
0.995253
0.996575
0.995329
0.996613
0.994965
0.996697
0.99524
0.996678
0.995166
0.996705
0.995142
0.99675
0.995232
0.9966
0.995239
0.996636
0.995124
0.996569
0.995225
0.996639
0.995188
0.996715
0.995174
0.996756
0.995284
0.996676
0.995177
0.996688
0.995199
0.996637
0.995155
0.996578
0.995054
0.996616
0.99513
0.996314
0.995235
0.996363
0.994924
0.996605
0.995234
0.996474
0.99516
0.995897
0.995348
0.99608
0.997989
0.997305
1.18098e-06
-1.42485e-32
1.31075e-18
1.7336e-28
-6.42245e-20
-7.65288e-28
-2.91247e-09
-7.49683e-22
3.62515e-15
1.93133e-31
4.22863e-14
3.13786e-14
-2.00116e-20
-6.288e-19
5.57307e-17
1.03373e-26
3.24997e-15
-4.45493e-32
-3.44158e-20
-5.67125e-21
-3.40098e-21
-1.88485e-10
8.1757e-25
6.32097e-26
4.2743e-26
1.45604e-27
8.21209e-28
1.22909e-15
7.27986e-21
-2.68488e-20
-2.97803e-12
3.41005e-15
1.723e-30
2.94269e-25
-0.000206457
7.0359e-23
1.44918e-27
-6.29783e-19
-1.33193e-18
0.872107
-4.69168e-18
-1.06325e-18
1.80283e-18
0.212109
1.56698e-29
4.43412e-30
2.33933e-18
-6.58776e-18
1.61206e-30
2.28639e-30
2.90789e-30
1.18286e-17
-1.08749e-17
7.23102e-17
6.22445e-16
2.1409e-16
5.68137e-16
1.73418e-15
3.41091e-15
1.77797e-08
-2.80208e-29
-1.13171e-27
1.0048
1.00082
1.02117
1.02274
0.99506
1.0162
0.922939
0.96892
0.776712
0.845269
0.592804
0.67128
0.417354
0.484472
0.278158
0.328042
0.174432
0.210559
0.103536
0.126687
0.0591826
0.0732918
0.0317622
0.0401626
0.0164632
0.0209624
0.00843068
0.0108537
0.00407414
0.00533055
0.00191552
0.00251153
0.000884345
0.00116682
0.00039191
0.000523154
0.000170097
0.000228103
7.37022e-05
9.93014e-05
3.05828e-05
4.16621e-05
1.27373e-05
1.72461e-05
5.22053e-06
7.15066e-06
2.0869e-06
2.85126e-06
8.44654e-07
1.15621e-06
3.19768e-07
4.49138e-07
1.16521e-07
1.62583e-07
4.56696e-08
6.32495e-08
1.69041e-08
2.37171e-08
6.16675e-09
8.62199e-09
2.27249e-09
3.19514e-09
7.87077e-10
1.11949e-09
2.76216e-10
3.8954e-10
9.83689e-11
1.38609e-10
3.39969e-11
4.82569e-11
1.18412e-11
1.67611e-11
4.0307e-12
5.75511e-12
1.32313e-12
1.89894e-12
4.473e-13
6.3749e-13
1.4792e-13
2.12805e-13
4.93202e-14
7.01213e-14
1.78902e-14
2.47833e-14
2.84922e-20
3.81323e-20
-9.16219e-20
3.43162e-15
5.09672e-15
4.68761e-15
-1.25364e-17
-1.7191e-17
4.67844e-06
3.62042e-06
-3.31057e-24
8.06901e-25
2.80129e-15
4.98211e-15
1.90261e-29
2.8352e-29
-1.79384e-29
-2.94569e-11
-1.23066e-10
-1.63693e-11
-4.8227e-09
1.48368e-09
-6.0309e-09
-1.65268e-19
-5.40242e-19
-1.20188e-19
-1.33729e-31
9.26766e-29
-5.03285e-05
2.24204e-05
2.13447e-07
7.79298e-15
9.01476e-25
2.99617e-25
9.7288e-15
-2.29089e-20
-1.70113e-17
1.67273e-15
4.64364e-15
6.34138e-27
6.42007e-15
-2.08169e-31
-8.74268e-10
3.99327e-15
-7.88375e-23
-2.49656e-09
2.28011e-25
1.20109e-07
1.02312e-15
2.14196e-16
-6.45123e-10
-3.15455e-23
1.11654e-14
8.05457e-07
-4.06141e-22
-1.18385e-12
5.783e-14
1.3835e-05
1.17146e-05
-2.75828e-24
7.7201e-26
0.973182
-2.61025e-23
0.65815
9.87138e-23
1.44428e-28
7.83904e-30
3.59533e-19
-7.87403e-22
1.0479e-20
5.14403e-19
0.738721
-1.51699e-18
7.90473e-16
0.998779
-1.27293e-18
7.17244e-18
0.0202911
2.44298e-16
4.85846e-16
1.33127e-13
2.23097e-13
1.17696e-13
1.47682e-24
-3.49668e-24
3.31245e-18
-4.52041e-31
-2.81727e-25
2.05766e-24
9.57982e-18
-0.00143939
-0.000815744
1.77177e-17
4.88077e-18
-0.00492849
-0.00406532
-2.75253e-23
-2.79727e-23
-1.7907e-18
0.91629
-3.83685e-23
1.2121e-27
3.17545e-16
8.81915e-16
1.72656e-17
3.37937e-16
7.08968e-16
6.5937e-27
1.6665e-06
-3.62892e-18
1.00982
1.00572
1.01655
1.00192
1.01028
1.00042
1.00668
1.00029
1.00582
0.999922
1.00548
0.999612
1.00488
0.999999
1.00494
0.999739
1.00486
0.999721
1.00456
0.999759
1.00463
0.999768
1.00462
0.999717
1.00476
0.999996
1.00474
0.999745
1.00499
1.00002
1.00473
0.999711
1.00501
0.999597
1.00468
1.00019
1.00509
0.999833
1.00537
0.999758
1.00479
0.99984
1.00498
0.999532
1.00473
0.999517
1.00452
0.999965
1.00484
0.999717
1.00482
0.999712
1.00454
0.999759
1.00464
0.999775
1.00465
0.999682
1.00484
0.999725
1.00488
0.999686
1.00489
0.999937
1.00504
0.999736
1.00498
0.999534
1.0046
1.00033
1.00499
1.00019
1.00563
1.00012
1.0055
1.00056
1.00562
1.0004
1.0035
0.704515
1.31677e-14
-3.40182e-24
-4.45666e-20
1.1944e-26
-6.43704e-21
-2.30125e-22
7.50782e-15
1.65523e-14
2.18424e-17
-6.17007e-23
-6.20072e-10
7.34187e-15
3.66621e-28
7.83772e-15
-3.69652e-17
-1.88442e-10
-8.8268e-10
0.323051
1.98515e-27
1.38658e-27
8.19916e-19
1.13886e-15
-2.14944e-20
-2.00078e-20
8.48955e-27
7.02103e-27
7.44656e-16
1.046e-14
1.63323e-14
-2.35484e-25
-5.10622e-26
3.92746e-26
7.47641e-28
7.54864e-27
1.70146e-15
-0.00912854
0.000578453
8.23188e-30
5.53475e-29
2.40185e-28
3.12987e-29
-1.14865e-17
2.88584e-17
1.99807e-16
1.01232e-15
0.0668977
6.00572e-18
-1.62105e-17
6.08834e-26
-0.00560879
0.000858499
-4.04446e-25
0.0701239
0.0312193
0.109382
1.67041e-15
1.68014e-15
0.883794
0.722782
-1.09394e-17
2.58106e-16
-1.34125e-21
-8.93351e-22
1.02444
1.00597
1.02172
0.9526
0.99485
0.817646
0.891969
0.637161
0.718922
0.46039
0.533563
0.309285
0.365753
0.196424
0.236892
0.118412
0.144899
0.0673653
0.0839655
0.0365124
0.0463234
0.0192476
0.0245841
0.00992766
0.0127877
0.00489125
0.00641135
0.00228587
0.00303185
0.00104427
0.00139345
0.000472204
0.000631437
0.00020685
0.000279147
8.88002e-05
0.000120507
3.78187e-05
5.17106e-05
1.55717e-05
2.14059e-05
6.39425e-06
8.81635e-06
2.59033e-06
3.57485e-06
1.03819e-06
1.44222e-06
4.02043e-07
5.64539e-07
1.49376e-07
2.10503e-07
5.71916e-08
8.00443e-08
2.13504e-08
3.0047e-08
7.82084e-09
1.10127e-08
2.85671e-09
4.03576e-09
1.00876e-09
1.4417e-09
3.51917e-10
5.03955e-10
1.23252e-10
1.76084e-10
4.38019e-11
6.24102e-11
1.54331e-11
2.21264e-11
5.20254e-12
7.49799e-12
1.78727e-12
2.57792e-12
5.97427e-13
8.68375e-13
1.98185e-13
2.90711e-13
6.88945e-14
1.02463e-13
2.40312e-14
3.05488e-05
4.85893e-05
3.03316e-05
4.96768e-06
4.13551e-06
-2.10396e-27
4.35547e-28
-3.1216e-23
-1.71486e-23
3.66582e-15
1.09534e-14
3.54014e-18
-5.09549e-18
9.32694e-18
-2.30981e-17
1.11035e-16
-4.67399e-21
-5.06544e-11
3.42011e-29
5.03826e-15
9.20858e-15
2.05394e-26
-0.00970125
-0.00678542
-4.87197e-25
3.79921e-14
8.36276e-15
5.62983e-15
4.05288e-17
2.73988e-17
0.188877
-1.60493e-24
6.04094e-15
1.96053e-15
-4.96598e-17
1.06142e-08
4.28235e-09
1.62164e-20
-6.11039e-20
7.90582e-16
5.45728e-16
-3.91103e-18
-2.79774e-18
-6.72148e-24
9.44575e-06
9.80891e-06
2.36176e-15
-3.61232e-24
-5.35056e-24
-8.92604e-23
4.45594e-07
8.92406e-20
6.89855e-20
-1.39518e-22
1.91958e-22
-1.24558e-21
-1.05652e-13
-2.15907e-14
1.01244
0.992634
4.72311e-30
7.73597e-26
8.34132e-18
8.08178e-30
1.27828e-29
5.38373e-29
0.239363
2.31113e-15
1.22958e-06
1.19223e-25
-2.15092e-10
-5.6527e-10
-1.60711e-10
1.02189
1.00368
-1.24993e-19
-1.82175e-19
1.18991e-18
2.68637e-22
8.64942e-08
3.00841e-07
4.84838e-08
-0.000838823
3.14319e-24
4.44528e-24
-7.91797e-24
9.82979e-22
-4.28144e-20
9.07752e-15
-0.00298607
-0.0068426
-0.002351
7.10358e-17
4.24286e-17
-7.41441e-25
-1.43242e-28
-1.41032e-28
-3.12208e-27
-3.3911e-11
-9.46447e-12
4.83449e-18
1.30009e-14
-1.85547e-22
-1.48959e-22
0.931834
1.32691e-14
-7.97527e-25
4.32519e-15
1.02066
1.0185
1.0277
1.0173
1.02466
1.01679
1.02412
1.01653
1.02394
1.01592
1.02312
1.01609
1.02313
1.0159
1.02315
1.01555
1.02253
1.0155
1.02243
1.01597
1.02294
1.01548
1.02264
1.01589
1.02235
1.01593
1.02286
1.01587
1.02281
1.01592
1.02292
1.0159
1.02259
1.01639
1.02304
1.01598
1.02345
1.01607
1.02274
1.01601
1.02329
1.0162
1.02336
1.0159
1.02299
1.01609
1.02311
1.01588
1.02312
1.01557
1.0225
1.01558
1.02244
1.01623
1.02301
1.01577
1.02287
1.01597
1.02276
1.01609
1.02269
1.01615
1.02302
1.01633
1.02325
1.0162
1.02264
1.0171
1.02296
1.01749
1.02385
1.01609
1.02399
1.01426
1.023
1.02495
0.461743
1.00059
2.45547e-06
6.06297e-17
1.02901e-14
1.22108e-14
-1.20693e-25
1.46355e-15
-1.91747e-22
7.9023e-19
2.28376e-26
6.07587e-17
8.95805e-17
0.443172
-7.0184e-24
1.57257e-25
2.32292e-25
-1.14435e-24
-5.99401e-14
4.87841e-15
1.43421e-14
3.66013e-20
4.80081e-09
5.07164e-22
2.27307e-14
4.15317e-16
1.38647e-15
2.76799e-16
-7.44552e-29
-0.000553439
-0.000156851
0.479483
-1.07356e-26
-3.63355e-27
0.98821
-9.57706e-25
-5.31277e-25
9.19183e-18
0.144954
-1.15252e-21
-1.99959e-21
2.31274e-20
4.68527e-18
2.69435e-19
0.382569
2.18111e-14
1.75881e-17
-6.73735e-18
1.26649e-17
1.01436
1.0201
1.02953
1.01439
1.4442e-17
-2.75973e-17
8.2116e-17
2.13724e-15
6.12954e-15
0.818366
0.909556
0.519635
2.64911e-15
2.12957e-15
-1.31657e-12
-5.66441e-12
-6.50694e-13
6.58967e-16
3.00047e-15
-5.98937e-22
-5.68055e-22
0.984713
0.87112
0.944001
0.695543
0.778575
0.512843
0.589553
0.349218
0.410593
0.225185
0.271187
0.135559
0.166906
0.078401
0.0974627
0.0434998
0.0551118
0.0230606
0.0296183
0.011973
0.0154242
0.00602606
0.00790721
0.00281053
0.00373704
0.00130615
0.00173952
0.000594084
0.000799608
0.000256355
0.000348047
0.000112696
0.000153044
4.86251e-05
6.66637e-05
2.00329e-05
2.75913e-05
8.42974e-06
1.16478e-05
3.37257e-06
4.70322e-06
1.34883e-06
1.86703e-06
5.40329e-07
7.58514e-07
1.98969e-07
2.84185e-07
7.51195e-08
1.05415e-07
2.84235e-08
4.04302e-08
1.02087e-08
1.46106e-08
3.72043e-09
5.30109e-09
1.35638e-09
1.95179e-09
4.70738e-10
6.78085e-10
1.68934e-10
2.42629e-10
6.04002e-11
8.67344e-11
2.08815e-11
2.99419e-11
7.31204e-12
1.06858e-11
2.4745e-12
3.61017e-12
8.68633e-13
1.26068e-12
3.08723e-13
4.55411e-13
1.14302e-13
1.71784e-13
2.71639e-14
3.69557e-14
4.53583e-14
3.07029e-27
3.07725e-26
-4.07407e-23
-2.74818e-23
2.06243e-14
3.27085e-14
-9.88379e-18
1.987e-17
2.80834e-17
8.95653e-16
-4.53959e-11
-6.30984e-26
3.02266e-06
1.61814e-06
1.13415e-17
2.70642e-18
6.79393e-15
-1.30282e-16
-9.35065e-17
-2.84349e-14
-3.8233e-15
2.93553e-14
8.85365e-17
6.44256e-17
-1.45873e-22
3.64065e-19
2.02951e-19
-4.35776e-24
0.226859
3.71998e-28
2.00562e-28
-1.36867e-17
-5.2237e-06
1.00164e-06
3.09901e-08
1.89191e-08
-1.01189e-19
-0.00139632
2.27917e-14
-1.20033e-22
6.93918e-22
3.3208e-14
3.29019e-14
1.1021e-21
-3.93264e-17
3.93823e-15
-4.80201e-13
-2.78198e-13
-5.47592e-28
4.07684e-29
-6.72048e-28
-9.57708e-11
-1.09721e-10
1.02231
-1.77935e-23
-1.79389e-22
0.0918601
0.0197758
1.70171e-18
-9.35622e-18
7.00598e-14
-4.9351e-06
-7.05571e-05
8.74549e-06
-1.39207e-23
-2.80259e-23
6.34484e-24
8.79473e-24
-1.65714e-23
-0.00356346
-0.00309278
-6.16615e-22
-4.4571e-22
2.36113e-09
3.23502e-10
-5.4348e-27
-8.11237e-27
2.80824e-27
1.41895e-06
5.70652e-07
2.13946e-17
1.46969e-20
1.90577e-19
1.47546e-19
-6.66195e-22
-2.56569e-25
9.39441e-20
1.02406
1.02363
1.02149
1.02386
1.02201
1.02348
1.02204
1.0229
1.02129
1.02369
1.02209
1.0237
1.02233
1.02306
1.02168
1.02317
1.02175
1.02362
1.02203
1.02276
1.02203
1.02363
1.02176
1.02327
1.02162
1.02312
1.02207
1.02276
1.02139
1.02291
1.02074
1.02358
1.02186
1.02297
1.02245
1.02283
1.0212
1.02284
1.02167
1.02322
1.02119
1.02307
1.02135
1.02378
1.02227
1.02369
1.02235
1.02305
1.02163
1.02318
1.02164
1.02364
1.02183
1.02252
1.02153
1.02274
1.02117
1.02343
1.02115
1.02394
1.02225
1.02413
1.02235
1.02388
1.0209
1.02437
1.02004
1.02367
1.01875
8.05799e-26
6.37444e-15
-5.65918e-24
6.87723e-23
-4.44641e-06
6.1616e-14
2.46217e-17
2.96011e-14
-2.5252e-16
-0.00104701
-0.000379157
5.76127e-14
9.20745e-14
5.69043e-14
8.26422e-14
8.90448e-14
-1.30729e-24
-8.84518e-25
4.24298e-15
-6.96344e-17
6.08461e-15
5.94889e-15
1.14515e-14
9.00139e-15
3.03446e-29
0.925439
1.38394e-21
5.91081e-22
0.755478
0.833387
0.567908
0.644976
0.393514
0.462501
0.256479
0.307234
0.159249
0.194488
0.0925451
0.115344
0.052137
0.0657284
0.0282837
0.0362759
0.0146183
0.0189059
0.00751761
0.00974489
0.00352299
0.00471237
0.00162079
0.00216832
0.000750939
0.00100713
0.000327572
0.00044893
0.00014469
0.000196024
6.40313e-05
8.69328e-05
2.63856e-05
3.67013e-05
1.10176e-05
1.51681e-05
4.5534e-06
6.35698e-06
1.76254e-06
2.47275e-06
7.20053e-07
9.97847e-07
2.72859e-07
3.90409e-07
9.92672e-08
1.41462e-07
3.8037e-08
5.35856e-08
1.41065e-08
2.02386e-08
5.03687e-09
7.19246e-09
1.89993e-09
2.69411e-09
6.60671e-10
9.62468e-10
2.33098e-10
3.35117e-10
8.39755e-11
1.21103e-10
2.84486e-11
4.12704e-11
1.01875e-11
1.45044e-11
3.57161e-12
5.1649e-12
1.26698e-12
1.82177e-12
5.01897e-13
7.17229e-13
2.13729e-13
1.45348e-13
3.28978e-13
-2.28014e-19
2.47061e-18
1.48613e-07
4.29205e-07
1.01439e-07
-1.39199e-23
-1.48445e-23
5.76848e-14
8.2862e-14
3.63056e-17
-9.81011e-17
-0.00429768
-0.00604967
2.16824e-15
8.70658e-15
1.46986e-14
4.09395e-14
-3.70888e-11
-1.35052e-11
1.29938e-16
-3.55909e-16
4.75509e-29
1.55073e-28
7.37383e-29
0.806252
1.62599e-18
1.01586
5.50832e-25
3.57469e-25
1.01638
1.02214
1.02341
-2.29858e-16
6.71689e-16
2.00147e-14
-3.24508e-19
0.97918
1.19838e-17
-4.29059e-24
1.00426e-11
5.93698e-19
3.83377e-19
1.60569e-14
1.01599
1.01812
2.10295e-17
1.08595e-17
-0.00172173
3.35486e-19
-1.36999e-19
-3.37097e-05
-2.00738e-05
4.40043e-08
-1.22959e-21
-6.94033e-23
2.31397e-16
1.72212e-16
-4.0609e-26
0.00279637
1.23816e-21
-1.75444e-21
-3.65708e-17
-2.69564e-17
1.30261e-20
-1.58762e-25
-2.59112e-29
5.50533e-14
-2.01953e-27
-6.90525e-13
-3.43116e-11
0.972935
0.990108
0.880984
2.36469e-10
1.08736e-10
5.61871e-20
0.408846
0.520662
0.184665
-2.87543e-12
-1.85311e-12
3.407e-20
7.3792e-21
-2.23222e-22
-3.40026e-22
1.67275e-21
-1.63703e-17
3.32787e-17
-1.5002e-24
-1.91411e-06
1.84959e-07
1.26293e-23
-6.92349e-05
-3.4337e-05
5.01035e-17
3.36037e-16
2.72886e-16
7.66642e-14
-2.29657e-21
-1.18368e-21
-0.00287991
-0.00300668
2.54777e-16
1.21833e-26
1.08748e-25
-4.69816e-13
-1.34867e-13
-1.44494e-26
-2.19632e-26
1.33048e-26
1.94725e-16
-2.30729e-19
4.21502e-19
3.09976e-08
1.02399e-08
2.88972e-16
-2.21865e-26
8.24867e-14
2.85386e-15
2.7977e-14
3.04118e-18
9.00194e-18
2.15818e-18
0.987808
-5.3278e-19
-3.96353e-19
0.987384
0.967792
0.988063
0.968306
0.987464
0.968492
0.988179
0.968671
0.989179
0.969224
0.988302
0.970323
0.986992
0.968094
0.988139
0.967373
0.989248
0.970107
0.988777
0.970559
0.988459
0.969502
0.988176
0.969328
0.988245
0.969656
0.987029
0.968648
0.987443
0.968413
0.98981
0.969717
0.990108
0.971341
0.98868
0.96967
0.988139
0.969307
0.987682
0.96842
0.988615
0.969021
0.989332
0.969592
0.988305
0.970439
0.986855
0.968071
0.987619
0.967198
0.989342
0.969885
0.988314
0.969424
0.989035
0.969015
0.990441
0.970633
0.991281
0.970405
0.99006
0.970191
0.986981
0.966077
0.984173
0.947455
0.959548
3.37055e-21
6.67718e-15
0.971094
2.31315e-24
1.25402e-14
-0.000239439
1.72508e-23
3.51972e-22
9.28062e-22
-1.10099e-24
-6.00382e-26
2.04154e-20
1.363e-20
3.2892e-18
-2.30812e-17
-6.71369e-17
-4.77416e-27
4.64557e-16
1.20324e-15
9.14022e-15
1.42056e-13
-1.55798e-24
-2.11518e-25
-1.60005e-25
-2.68441e-27
1.85515e-09
6.72167e-09
1.09824e-09
4.49592e-23
1.94868e-23
4.86653e-20
1.34176e-14
1.76999e-14
1.39897e-13
2.04292e-13
0.7989
0.869446
-3.90518e-23
-3.30786e-23
0.6165
0.691318
0.439446
0.508175
0.294845
0.348795
0.184977
0.222931
0.110401
0.135529
0.0630821
0.0788002
0.0346425
0.0437034
0.0183728
0.0235148
0.00918945
0.0118545
0.00440711
0.00579111
0.00207873
0.00275498
0.000953583
0.00126627
0.000432205
0.000581698
0.000190094
0.000257964
8.24416e-05
0.000111788
3.52199e-05
4.82715e-05
1.48766e-05
2.04139e-05
6.11547e-06
8.41183e-06
2.4233e-06
3.38981e-06
9.57879e-07
1.33129e-06
3.6806e-07
5.16046e-07
1.40513e-07
1.99157e-07
5.16143e-08
7.32197e-08
1.93234e-08
2.72035e-08
7.13875e-09
1.02128e-08
2.56799e-09
3.64719e-09
9.30057e-10
1.32792e-09
3.36695e-10
4.84183e-10
1.18216e-10
1.68873e-10
4.1266e-11
5.97816e-11
1.43546e-11
2.08098e-11
5.03479e-12
7.23457e-12
1.84053e-12
2.61758e-12
7.39847e-13
1.00052e-12
1.01861e-19
7.10475e-20
-1.61407e-16
6.28669e-16
0.00078172
-0.00208203
1.74932e-14
4.01359e-14
8.21466e-14
1.98304e-13
-9.83213e-12
-6.10609e-16
1.5209e-15
0.985647
0.95884
2.13288e-23
4.81357e-18
-6.32048e-19
5.21408e-10
9.22814e-25
-4.13447e-13
2.45464e-14
7.28549e-19
-7.82053e-19
0.967322
4.3213e-13
8.2393e-16
3.89234e-19
3.14174e-19
-0.00146636
6.94724e-20
1.02239e-19
-3.09363e-19
-8.11623e-17
1.18572e-07
-3.80258e-12
-2.27462e-16
4.41539e-22
-0.000616808
6.12906e-17
-9.1969e-17
1.24665e-20
-3.78834e-26
4.06188e-08
1.97273e-21
-4.42702e-25
0.924093
0.921803
4.26218e-14
0.407106
1.50923e-13
2.09844e-13
-1.06819e-22
4.03174e-16
2.57051e-16
2.07684e-13
1.41136e-13
-8.85302e-25
-1.2587e-24
2.84128e-23
0.0356244
1.16286e-13
-8.53884e-16
-2.82527e-21
1.42739e-20
-3.19179e-22
9.12567e-17
4.08328e-26
-2.17596e-12
0.0169156
0.759967
0.817086
0.491896
2.36716e-22
0.123282
-2.77897e-12
-2.24276e-22
-4.81541e-22
1.41606e-13
2.06778e-13
2.20121e-13
-0.000162582
-0.000109678
4.92077e-07
3.72666e-07
-7.91591e-16
-1.26203e-05
2.6557e-25
1.34005e-24
1.53939e-07
-0.00120104
2.00951e-14
5.95173e-05
-0.000973637
3.21821e-10
8.7492e-11
5.96941e-14
-8.64445e-14
-2.1682e-14
-5.96993e-05
-3.89714e-05
-6.08739e-12
8.34903e-08
8.48066e-08