/*--------------------------------*- C++ -*----------------------------------*\
  =========                 |
  \\      /  F ield         | OpenFOAM: The Open Source CFD Toolbox
   \\    /   O peration     | Website:  https://openfoam.org
    \\  /    A nd           | Version:  7
     \\/     M anipulation  |
\*---------------------------------------------------------------------------*/
FoamFile
{
    version     2.0;
    format      ascii;
    class       volScalarField;
    location    "0.08";
    object      T;
}
// * * * * * * * * * * * * * * * * * * * * * * * * * * * * * * * * * * * * * //

dimensions      [0 0 0 1 0 0 0];

internalField   nonuniform List<scalar> 
45544
(
0
0
0
0
0
0
0
0
0
0
0
0
0
0
0
0
0
0
0
0
0
0
0
0
0
0
0
0
0
0
0
0
0
0
0
0
0
0
0
0
0
0
0
0
0
0
0
0
0
0
0
0
0
0
0
0
0
0
0
0
0
0
0
0
0
0
0
0
0
0
0
0
0
0
0
0
0
0
0
0
0
0
0
0
0
0
0
0
0
0
0
0
0
0
0
0
0
0
0
0
0
0
0
0
0
0
0
0
0
0
0
0
0
0
0
0
0
0
0
0
0
0
0
0
0
0
0
0
0
0
0
0
0
0
0
0
0
0
0
0
0
0
0
0
0
0
0
0
0
0
0
0
0
0
0
0
0
0
0
0
0
0
0
0
0
0
0
0
0
0
0
0
0
0
0
0
0
0
0
0
0
0
0
0
0
0
0
0
0
0
0
0
0
0
0
0
0
0
0
0
0
0
0
0
0
0
0
0
0
0
0
0
0
0
0
0
1.42171e-47
5.03062e-43
8.16638e-42
5.10147e-41
2.95548e-40
2.50957e-36
1.6492e-36
1.02613e-36
1.20362e-36
1.07557e-36
4.05417e-37
-1.367e-34
-1.14884e-33
-4.26849e-33
-5.33484e-33
-8.33142e-33
-1.87495e-31
-6.42183e-30
-1.90515e-29
-5.59103e-29
-3.02626e-29
-7.18852e-29
-4.39218e-29
-4.74613e-29
-4.69309e-29
-2.8986e-29
-1.53238e-29
-2.24752e-29
-1.44468e-29
-1.28101e-29
-5.60302e-30
-2.65231e-30
-1.15889e-30
-6.09671e-31
-3.7278e-31
-4.05306e-31
-1.65166e-31
-1.18455e-31
-5.32764e-32
-2.3282e-32
-1.2403e-32
-5.32631e-33
-2.1194e-33
-1.54479e-33
-5.91606e-34
-2.22864e-34
-1.09702e-34
-4.82709e-35
-3.33328e-35
-1.32435e-35
-5.16659e-36
-3.59919e-36
-1.32397e-36
-7.67402e-37
-3.14656e-37
-1.26769e-37
-5.26038e-38
-1.89411e-38
-6.38246e-39
-2.67262e-39
-8.57729e-40
-2.23612e-40
-6.51654e-41
-1.7922e-41
-8.60827e-42
-2.10542e-42
-4.92212e-43
-1.11674e-43
-1.59571e-44
-2.01748e-45
-1.17117e-46
-8.81002e-48
-9.20064e-49
-2.11453e-50
-6.96428e-51
-4.56542e-51
-1.01542e-51
-1.11244e-52
-1.14985e-53
-6.38671e-55
-2.64641e-56
-4.61035e-59
-3.05871e-59
0
0
0
0
0
0
0
0
0
0
0
0
0
0
0
0
0
0
0
0
0
0
0
0
0
0
0
0
0
0
0
0
0
0
0
0
0
0
0
0
0
0
0
0
0
0
0
0
0
0
0
0
0
0
0
0
0
0
0
0
0
0
0
0
0
0
0
0
0
0
0
0
0
0
0
0
0
0
0
0
0
0
0
0
0
0
0
0
0
0
0
0
0
0
0
0
0
0
0
0
0
0
0
0
0
0
0
0
0
0
0
0
0
0
0
0
0
0
0
0
0
0
0
0
0
0
0
0
0
0
0
0
0
0
0
0
0
0
0
0
0
0
0
0
0
0
0
0
0
0
0
0
0
0
0
0
0
0
0
0
0
0
0
0
0
0
2.16666e-124
2.70833e-124
2.55308e-124
3.18299e-124
3.42155e-121
4.27569e-121
2.20701e-121
2.75566e-121
3.94407e-120
4.92991e-120
2.49485e-120
3.11692e-120
9.30125e-120
1.16252e-119
6.21401e-120
7.76661e-120
4.00401e-120
5.00444e-120
2.71525e-120
3.36115e-120
2.91266e-119
3.63065e-119
1.93612e-118
2.37545e-118
8.33682e-115
1.04199e-114
5.36331e-115
6.70348e-115
3.58546e-115
4.29518e-115
1.96213e-112
2.44206e-112
5.17529e-112
6.46137e-112
3.27558e-112
4.07468e-112
3.20796e-111
-1.01339e-110
2.85438e-109
3.401e-109
2.11961e-109
2.52605e-109
1.32565e-109
1.5674e-109
1.0316e-109
2.3015e-110
5.2097e-108
6.33954e-108
7.08537e-107
8.64063e-107
4.43486e-107
5.39696e-107
2.93795e-107
3.57529e-107
1.82678e-107
2.19677e-107
3.59246e-106
4.31154e-106
7.2735e-106
8.97163e-106
4.37772e-106
5.3987e-106
2.77428e-106
3.2818e-106
4.69758e-106
5.69295e-106
4.41592e-106
5.39792e-106
5.67896e-106
6.72758e-106
3.60805e-106
3.87809e-106
5.40678e-106
6.37427e-106
1.45144e-105
1.59648e-105
8.42359e-106
9.30014e-106
1.45641e-105
1.7509e-105
7.03685e-106
8.3951e-106
3.68273e-106
4.17121e-106
2.35962e-105
2.90292e-105
1.42764e-105
1.75272e-105
9.56206e-106
8.37914e-106
1.62063e-104
1.99193e-104
1.90356e-104
2.3571e-104
3.67464e-104
4.35232e-104
2.4011e-104
2.51806e-104
3.6246e-104
4.28327e-104
2.37923e-104
1.89626e-104
7.62371e-104
8.87192e-104
7.32101e-104
8.81959e-104
4.40472e-104
5.24423e-104
3.74965e-104
4.52259e-104
3.37117e-104
4.14577e-104
2.25852e-104
2.65855e-104
5.6787e-104
7.01358e-104
3.46863e-104
4.25792e-104
2.04193e-104
2.49873e-104
3.59712e-104
4.41601e-104
5.3387e-104
6.62727e-104
2.78941e-104
3.46242e-104
1.38596e-104
1.71172e-104
1.05139e-104
1.30043e-104
6.79964e-105
8.41384e-105
5.74993e-105
7.08878e-105
3.13352e-105
3.84344e-105
1.57424e-105
1.94099e-105
8.24802e-106
1.01619e-105
4.7599e-106
5.90653e-106
8.62684e-106
1.07673e-105
4.75313e-106
5.93851e-106
8.15592e-106
1.01928e-105
1.15803e-105
1.44761e-105
6.3913e-106
7.9895e-106
3.61445e-106
4.51929e-106
3.88372e-106
4.85552e-106
3.04569e-106
3.80735e-106
3.0129e-106
3.76686e-106
1.55643e-106
1.94621e-106
1.14367e-105
1.42961e-105
6.07764e-106
7.59708e-106
5.4978e-106
6.87225e-106
4.60347e-106
5.75434e-106
2.46241e-106
3.07801e-106
9.75947e-107
1.21993e-106
2.24708e-106
2.80885e-106
1.01934e-106
1.27418e-106
3.31747e-107
4.14684e-107
2.34939e-107
2.93673e-107
6.0144e-108
7.518e-108
-1.06486e-108
-1.33108e-108
-1.34577e-108
-1.68221e-108
-1.44107e-108
-1.80134e-108
-5.27287e-109
-6.59109e-109
-3.04217e-109
-3.80271e-109
-8.95745e-110
-1.11968e-109
-2.34477e-110
-2.93096e-110
-6.72057e-111
-8.40072e-111
-2.51072e-111
-3.1384e-111
-8.37639e-112
-1.04705e-111
-8.49205e-113
-1.06151e-112
-1.04229e-113
-1.30286e-113
-1.37469e-114
-1.71836e-114
-5.40029e-115
-6.75037e-115
-1.53132e-115
-1.91415e-115
-9.51899e-117
-1.18987e-116
-4.02093e-118
-5.02616e-118
-1.65795e-117
-2.07244e-117
-4.0362e-118
-5.04525e-118
-6.06507e-113
-7.58133e-113
-8.81861e-114
-1.10233e-113
-1.10632e-114
-1.38276e-114
-1.19039e-115
-1.48567e-115
-5.32903e-106
-8.54898e-55
-1.11561e-47
8.29158e-45
-4.41759e-41
1.07937e-37
1.38013e-35
4.4549e-34
4.34285e-33
2.6361e-32
1.15212e-31
2.90203e-31
6.4854e-31
1.42574e-30
2.74692e-30
4.70932e-30
7.81835e-30
1.46555e-29
2.34494e-29
3.13132e-29
3.48202e-29
3.13549e-29
2.298e-29
1.46448e-29
8.98579e-30
4.67383e-30
2.12419e-30
9.54216e-31
3.96202e-31
1.27111e-31
3.06568e-32
5.09858e-33
5.87548e-34
4.7618e-35
3.04787e-36
1.23939e-37
1.93448e-39
-1.36641e-41
-7.33732e-43
-7.01324e-45
-1.35697e-47
-3.12676e-51
-7.03392e-56
-1.00747e-58
-6.71851e-63
-2.12582e-68
-2.75202e-73
-6.71321e-82
-4.68885e-89
-4.97332e-99
-0.0163357
-0.00372382
-0.0239039
0.038491
-0.00348174
0.0740215
0.0110217
0.104186
0.0218567
0.125288
0.0249383
0.13859
0.020568
0.143044
0.012822
0.143467
0.00157221
0.139396
-0.0112865
0.136599
-0.0248197
0.130448
-0.0346541
0.123803
-0.0447681
0.119673
-0.0553351
0.115385
-0.0621709
0.111124
-0.069461
0.104883
-0.0727404
0.103137
-0.078165
0.108929
-0.0824952
0.0967095
-0.085856
0.954741
1.02182
1.10818
0.963327
1.0327
0.972653
1.00964
0.971481
1.01581
0.972637
1.01545
0.971761
1.0154
0.971454
1.01497
0.97227
1.01479
0.970818
1.01478
0.971744
1.01486
0.972543
1.01552
0.9726
1.01569
0.970511
1.01418
0.971082
1.01263
0.972806
1.01494
0.973018
1.01671
0.96875
1.01394
0.970838
1.00773
1.0166
1.10719
-0.019492
0.0489063
0.115871
0.152088
0.154591
0.144311
0.134198
0.126677
0.117174
0.111571
0.0324778
0.0248421
0.0250748
0.024563
0.024446
0.0245575
0.0247199
0.0255413
0.0262167
0.0271349
-3.82339e-59
0
0
0
0
0
0
0
0
0
0
0
0
0
0
0
0
0
1.72833e-44
1.09451e-41
6.02038e-42
3.39154e-41
2.23188e-38
1.66582e-36
1.08104e-36
6.88298e-37
7.98268e-37
7.45723e-37
2.83943e-37
-9.24035e-35
-7.82592e-34
-2.85564e-33
-4.74401e-33
-2.25488e-32
-9.55174e-31
-1.66728e-29
-1.83758e-29
-3.87171e-29
-2.28722e-29
-6.27637e-29
-3.30784e-29
-3.49197e-29
-3.24635e-29
-2.02176e-29
-1.21852e-29
-1.54211e-29
-1.01951e-29
-8.4915e-30
-3.90208e-30
-1.75648e-30
-8.40929e-31
-5.53704e-31
-2.6463e-31
-2.54891e-31
-1.08243e-31
-8.35868e-32
-3.32728e-32
-1.47474e-32
-7.62285e-33
-3.43867e-33
-1.31466e-33
-9.57017e-34
-3.65062e-34
-1.53834e-34
-7.83452e-35
-3.07048e-35
-2.02735e-35
-8.48192e-36
-3.23813e-36
-2.19489e-36
-7.98953e-37
-5.14473e-37
-1.88992e-37
-7.39843e-38
-3.0196e-38
-1.11307e-38
-3.60178e-39
-1.58947e-39
-4.43811e-40
-1.23444e-40
-3.70024e-41
-9.10243e-42
-4.22945e-42
-1.11951e-42
-2.0593e-43
-3.98161e-44
-5.2975e-45
-4.76162e-46
-3.22112e-47
-2.24952e-48
-1.5283e-49
-5.90833e-51
-7.10507e-51
-2.4473e-51
-3.57181e-52
-3.93511e-53
-3.92839e-54
-8.56667e-56
-1.28436e-57
0
-1.46502e-60
0
-1.60418e-54
-1.79138e-49
-6.66129e-106
-3.70761e-49
1.02507e-46
-3.5916e-43
1.35053e-39
1.57911e-36
9.05065e-35
1.53262e-33
1.08777e-32
5.88055e-32
1.89232e-31
4.28621e-31
9.78139e-31
1.99367e-30
3.66845e-30
5.90447e-30
1.07609e-29
1.89016e-29
2.75356e-29
3.38944e-29
3.39159e-29
2.75349e-29
1.86292e-29
1.16233e-29
6.62638e-30
3.19691e-30
1.42669e-30
6.33468e-31
2.35013e-31
6.47879e-32
1.35699e-32
1.81159e-33
1.71642e-34
1.28017e-35
6.72724e-37
1.82821e-38
1.34065e-40
-4.21129e-42
-8.96828e-44
-3.88177e-46
-2.96236e-49
1.13322e-52
-3.21038e-58
-2.94644e-60
-1.28276e-66
-3.03162e-71
-6.75547e-80
-5.38273e-86
-1.97416e-97
-0.00998795
-3.62418e-102
-0.137386
0.290784
0.423079
0.00948882
0.0868739
0.138573
0.155772
0.150486
0.140862
0.131704
0.123984
0.117375
-0.00131489
0.0929547
0.0261267
0.0246987
0.024663
0.0244421
0.0244508
0.0246607
0.0249999
0.0260535
0.0254001
0.0165823
0
0
0
0
0
0
0
0
0
0
0
0
0
0
0
0
2.11962e-44
1.18515e-41
3.5377e-42
3.84135e-41
-1.84226e-39
1.69397e-36
1.19089e-36
6.45708e-37
8.69028e-37
6.96947e-37
5.47268e-37
-1.11188e-34
-7.56315e-34
-2.99713e-33
-5.65807e-33
8.25343e-32
7.90953e-31
-9.92886e-31
7.78762e-30
-2.96969e-29
-1.34445e-29
-6.01552e-29
-1.45009e-29
-1.54959e-29
-2.81581e-29
-1.71189e-29
-9.39993e-31
-1.33772e-29
-9.17599e-30
-8.1717e-30
-3.86394e-30
-1.52547e-30
-7.17544e-31
-4.93069e-31
-1.69773e-31
-2.58853e-31
-1.0588e-31
-9.01522e-32
-3.52955e-32
-1.50111e-32
-8.46836e-33
-3.80948e-33
-1.24048e-33
-1.03708e-33
-3.95058e-34
-1.67103e-34
-8.87544e-35
-3.10571e-35
-2.31683e-35
-9.83601e-36
-3.39737e-36
-2.56084e-36
-9.46504e-37
-6.24679e-37
-2.31235e-37
-9.16413e-38
-3.76199e-38
-1.38913e-38
-4.49273e-39
-1.98615e-39
-5.54692e-40
-1.54299e-40
-4.62528e-41
-1.1378e-41
-5.28681e-42
-1.39939e-42
-2.57412e-43
-4.97701e-44
-6.62188e-45
-5.95203e-46
-4.0264e-47
-2.8119e-48
-1.91038e-49
-7.38542e-51
-8.88134e-51
-3.05912e-51
-4.46476e-52
-4.91889e-53
-4.91049e-54
-1.07083e-55
-1.60545e-57
-1.83128e-60
1.95278e-44
-1.01377e-40
2.51155e-37
3.12039e-35
8.75455e-34
7.59223e-33
4.54346e-32
1.78586e-31
4.20201e-31
9.51327e-31
2.01408e-30
3.86036e-30
6.30285e-30
1.09364e-29
2.02259e-29
3.11022e-29
3.98951e-29
4.21251e-29
3.58487e-29
2.51065e-29
1.57143e-29
9.39248e-30
4.61249e-30
2.05214e-30
9.26345e-31
3.63281e-31
1.05721e-31
2.32614e-32
3.25814e-33
3.30398e-34
2.45604e-35
1.37218e-36
4.09521e-38
3.49171e-40
-8.50486e-42
-1.95868e-43
-8.9264e-46
-7.17858e-49
2.61068e-52
-5.48409e-58
-7.09706e-60
-3.00812e-66
-7.51953e-71
-1.59043e-79
-1.30745e-85
-4.92049e-97
-1.23269e-101
-0.00386688
0.0166492
0.0239705
0.0139371
-0.0152678
-0.0420654
-0.061957
-0.0749158
-0.0847045
-0.086969
-0.00547495
-0.00352688
-0.00350441
-0.00332056
-0.00331812
-0.00335814
-0.00332984
-0.00311982
-0.00317301
-0.00183841
0
0
0
0
0
0
0
0
0
0
0
0
0
0
0
0
-2.20549e-42
4.06053e-42
6.14328e-41
-6.19434e-41
2.57271e-36
1.8217e-36
1.03825e-36
1.33991e-36
1.00629e-36
6.32068e-37
-1.71746e-34
-1.13096e-33
-4.4659e-33
-6.29977e-33
2.24843e-32
7.3418e-31
2.03325e-29
1.79817e-29
-4.96035e-29
-1.67894e-29
-6.33349e-29
-3.70575e-29
-1.85916e-29
-4.04493e-29
-2.42935e-29
-3.28351e-30
-1.9293e-29
-1.27986e-29
-1.22497e-29
-5.411e-30
-2.26502e-30
-9.17645e-31
-4.34243e-31
-2.77708e-31
-4.15589e-31
-1.60505e-31
-1.25075e-31
-5.74063e-32
-2.37721e-32
-1.35985e-32
-5.843e-33
-2.06463e-33
-1.66957e-33
-6.45262e-34
-2.31558e-34
-1.20618e-34
-5.11084e-35
-3.76617e-35
-1.52913e-35
-5.58872e-36
-4.17183e-36
-1.56794e-36
-9.16991e-37
-3.85279e-37
-1.56475e-37
-6.54305e-38
-2.36107e-38
-7.95297e-39
-3.3383e-39
-1.07183e-39
-2.79494e-40
-8.14557e-41
-2.24024e-41
-1.07603e-41
-2.63177e-42
-6.15265e-43
-1.39593e-43
-1.99463e-44
-2.52186e-45
-1.46396e-46
-1.10125e-47
-1.15008e-48
-2.64316e-50
-8.70536e-51
-5.70677e-51
-1.26927e-51
-1.39055e-52
-1.43732e-53
-7.98338e-55
-3.30801e-56
-5.76294e-59
3.59113e-36
1.9264e-34
2.85701e-33
1.86241e-32
9.80034e-32
2.8425e-31
6.23256e-31
1.43292e-30
2.82477e-30
5.02627e-30
8.07198e-30
1.51214e-29
2.57806e-29
3.59654e-29
4.20933e-29
3.9894e-29
3.0736e-29
1.98724e-29
1.2391e-29
6.66485e-30
3.09755e-30
1.38835e-30
6.02178e-31
2.01501e-31
5.13995e-32
8.98807e-33
1.09799e-33
9.20133e-35
6.08698e-36
2.57811e-37
4.53679e-39
-2.25276e-41
-1.55037e-42
-1.62029e-44
-3.2512e-47
-8.1942e-51
-1.76072e-55
-2.38589e-58
-1.61211e-62
-5.19451e-68
-6.79892e-73
-1.66302e-81
-1.13366e-88
-1.44489e-98
-3.13415e-105
0.00216247
0.0243412
0.0200583
-0.00129836
-0.0281031
-0.0511751
-0.0682316
-0.0778933
-0.0824218
-0.123885
-0.00348445
-0.00339135
-0.00346818
-0.0033102
-0.00331998
-0.00340778
-0.00329907
-0.00303637
-0.00379403
0.00274359
0
-2.51634e-47
3.42877e-39
-8.51466e-43
2.63276e-46
-0.0145721
0
0
0
0
0
0
0
0
0
0
0
0
0
0
0
0
0
0
0
0
0
0
0
0
0
0
0
0
0
0
0
0
0
0
0
0
0
0
0
0
0
0
0
0
0
0
0
0
0
0
0
0
0
0
0
0
0
0
0
0
0
0
0
0
0
0
0
0
0
0
0
0
0
0
0
0
0
0
0
0
0
0
0
0
0
0
0
0
0
0
0
0
0
0
0
0
0
0
0
0
0
0
0
0
0
0
0
0
0
0
0
0
0
0
0
0
0
0
0
0
0
0
0
0
0
0
0
0
0
0
0
0
0
0
0
0
0
0
0
0
0
0
0
0
0
0
0
0
0
0
0
0
0
0
0
0
0
0
0
0
0
0
0
0
0
0
0
0
0
0
0
0
0
0
0
0
0
0
0
0
0
0
0
0
0
0
0
0
0
0
0
0
0
0
0
0
-3.05704e-47
-4.50769e-49
-1.06061e-48
2.37384e-44
0
0
0
0
0
0
0
0
0
0
0
0
0
0
5.71296e-42
1.836e-39
3.79071e-39
1.50045e-38
1.34798e-36
8.62506e-35
3.95683e-35
7.10668e-35
4.86088e-35
7.77412e-35
-6.70359e-33
-1.28091e-32
-1.03258e-31
-3.19552e-31
-5.30124e-31
-3.25368e-29
-3.63852e-28
-2.11427e-27
-3.21527e-27
-2.21393e-27
-1.71425e-27
-2.20805e-27
-2.90815e-27
-3.05128e-27
-1.49858e-27
-1.035e-27
-1.41781e-27
-6.38739e-28
-3.92044e-28
-2.84179e-28
-1.26284e-28
-8.01583e-29
-4.12121e-29
-2.5312e-29
-1.86222e-29
-7.68206e-30
-3.75474e-30
-1.98932e-30
-9.11001e-31
-4.78951e-31
-1.8918e-31
-9.14007e-32
-6.10956e-32
-2.72085e-32
-1.08078e-32
-5.35122e-33
-2.24265e-33
-1.37333e-33
-5.2842e-34
-2.10019e-34
-1.44848e-34
-5.20929e-35
-2.0194e-35
-1.0361e-35
-4.62053e-36
-1.58743e-36
-5.27763e-37
-2.06457e-37
-9.10613e-38
-2.95034e-38
-1.1656e-38
-4.01839e-39
-1.19067e-39
-4.62893e-40
-1.18751e-40
-3.03098e-41
-8.00452e-42
-1.14535e-42
-1.78609e-43
-1.12595e-44
-7.79823e-46
-1.07501e-46
-3.70576e-48
-4.34482e-50
-2.60113e-49
-8.85542e-50
-2.08166e-50
-1.91075e-51
-1.64845e-52
-1.48608e-53
-5.2406e-56
-1.71976e-57
4.34704e-36
0
-4.6789e-59
0
0
0
0
0
0
0
0
0
0
0
0
0
0
0
0
0
0
0
0
0
0
0
0
0
0
0
0
0
0
0
0
0
0
0
0
0
0
0
0
0
0
0
0
0
0
0
0
0
0
0
0
0
0
0
0
0
0
0
0
0
0
0
0
0
0
0
0
0
0
0
0
0
0
0
0
0
0
0
0
0
0
0
0
0
0
0
0
0
0
0
0
0
0
0
0
0
0
0
0
0
0
0
0
0
0
0
0
0
0
0
0
0
0
0
0
0
0
0
0
0
0
0
0
0
0
0
0
0
0
0
0
0
0
0
0
0
0
0
0
0
0
0
0
0
0
0
0
0
0
0
0
0
0
0
0
0
0
0
0
0
0
0
0
1.60596e-122
2.04101e-122
3.22636e-122
4.00507e-122
2.08462e-122
2.59099e-122
1.23211e-118
1.53723e-118
2.99656e-118
3.8616e-118
1.91068e-118
2.38536e-118
1.60272e-117
2.03392e-117
1.3927e-117
1.72992e-117
9.27862e-118
1.17242e-117
5.8713e-118
7.45211e-118
2.22169e-117
2.77889e-117
4.31938e-117
5.38505e-117
8.21114e-117
9.91031e-117
5.39861e-113
6.78725e-113
3.31852e-113
4.29858e-113
2.30053e-113
2.65387e-113
2.7603e-110
3.43256e-110
2.3879e-110
2.96248e-110
4.46895e-110
1.13036e-110
3.19963e-107
3.90156e-107
4.35109e-107
5.25062e-107
3.78304e-107
1.62855e-108
2.89203e-107
1.87242e-108
1.37969e-106
1.5017e-106
4.53551e-106
4.46658e-106
9.25504e-105
1.14979e-104
5.76743e-105
7.09004e-105
3.60362e-105
4.42147e-105
2.21349e-105
2.69708e-105
4.31833e-104
5.27994e-104
3.05931e-104
3.74274e-104
1.84069e-104
2.28992e-104
4.21615e-104
5.22044e-104
4.51368e-104
5.52081e-104
2.68829e-104
3.31832e-104
6.88099e-104
7.70632e-104
1.32813e-103
1.6353e-103
7.94328e-104
8.78932e-104
3.6808e-103
4.51634e-103
2.06057e-103
2.52776e-103
1.18996e-103
1.46167e-103
5.54247e-104
6.57177e-104
6.02732e-104
7.19119e-104
9.36834e-104
1.14513e-103
5.7505e-104
7.0446e-104
1.95149e-102
2.45306e-102
2.48366e-102
3.06778e-102
1.56652e-102
1.95433e-102
5.62105e-102
6.3264e-102
1.27655e-101
1.57977e-101
7.22584e-102
7.95444e-102
2.81028e-101
3.51547e-101
1.59389e-101
1.94343e-101
8.92185e-102
1.10409e-101
6.40518e-102
7.94665e-102
3.52968e-102
4.25479e-102
2.08868e-102
2.5675e-102
4.8238e-102
5.98059e-102
2.90557e-102
3.52208e-102
2.72254e-102
3.44704e-102
1.56463e-102
1.95034e-102
3.23585e-102
3.99606e-102
2.02068e-102
2.49356e-102
1.0549e-102
1.32498e-102
8.87157e-103
1.11967e-102
5.2488e-103
6.45593e-103
2.5988e-103
3.1343e-103
3.54915e-103
4.35633e-103
3.58043e-103
4.49275e-103
1.78103e-103
2.23694e-103
1.25683e-103
1.58502e-103
7.02886e-104
8.82601e-104
5.354e-104
6.69931e-104
2.90319e-104
3.68355e-104
6.54135e-104
8.15623e-104
4.22446e-104
5.25896e-104
2.34209e-104
2.96525e-104
3.53328e-104
4.49528e-104
3.07714e-104
3.82015e-104
1.6572e-104
2.08387e-104
4.39671e-104
5.48832e-104
7.00132e-104
9.00955e-104
6.17963e-104
7.69232e-104
3.23522e-104
4.14367e-104
3.76711e-104
4.66047e-104
2.02437e-104
2.54154e-104
1.05108e-104
1.35564e-104
8.4149e-105
1.05135e-104
7.79399e-105
9.69812e-105
3.53987e-105
4.46856e-105
5.87689e-105
7.46387e-105
2.45064e-105
3.04252e-105
4.19346e-106
5.27395e-106
-6.54892e-107
-8.17374e-107
-1.2098e-106
-1.5591e-106
-4.85071e-107
-6.05804e-107
-3.47484e-107
-4.42355e-107
-1.72884e-107
-2.14774e-107
-4.60392e-108
-5.80157e-108
-1.33291e-108
-1.7062e-108
-4.20211e-109
-5.26057e-109
-9.81698e-110
-1.22504e-109
-6.22867e-110
-7.82651e-110
-6.47072e-111
-8.08666e-111
-8.08948e-112
-1.01172e-111
-1.08005e-112
-1.36555e-112
-5.28481e-113
-6.58902e-113
-6.02823e-114
-7.50167e-114
-3.81949e-115
-4.84299e-115
-6.733e-115
-8.57785e-115
-1.80663e-115
-2.23948e-115
-2.1724e-116
-2.72657e-116
-4.35656e-111
-5.39714e-111
-1.81959e-111
-2.28822e-111
-8.48718e-106
-1.05332e-105
-1.1165e-106
-4.04544e-105
-1.40829e-106
4.15483e-39
0.00312332
0.0028726
0.00179989
-1.22905e-40
-3.01467e-40
3.2027e-46
-7.05656e-47
8.22237e-46
3.0424e-37
1.07006e-38
7.40546e-37
-1.03418e-42
-2.59901e-42
2.33168e-34
3.45663e-33
2.25539e-32
1.18889e-31
3.4487e-31
7.55556e-31
1.73739e-30
3.436e-30
6.085e-30
9.79796e-30
1.83175e-29
3.12454e-29
4.36567e-29
5.09395e-29
4.82237e-29
3.7207e-29
2.40941e-29
1.50233e-29
8.06622e-30
3.74646e-30
1.67856e-30
7.2676e-31
2.43781e-31
6.21408e-32
1.08845e-32
1.33353e-33
1.11471e-34
7.36634e-36
3.12106e-37
5.512e-39
-2.67303e-41
-1.87553e-42
-1.95768e-44
-3.93247e-47
-9.99255e-51
-2.14526e-55
-2.90007e-58
-1.95592e-62
-6.3146e-68
-8.26571e-73
-2.01287e-81
-1.37258e-88
-1.76031e-98
-1.49986e-101
-4.26993e-101
-1.43828e-104
-0.000155502
-0.00741314
0.159489
0.00338356
0.000837942
0.000593291
-0.000937859
-0.000466777
-0.00363357
-0.00111469
-0.0063057
-0.00118217
-0.00831716
-0.00147603
-0.00977371
-0.000539961
-0.0106387
-0.00127513
-0.0115749
0.00149579
-0.0133226
0.00103738
-0.0141006
-0.000495944
-0.0145129
0.000233942
-0.0137358
0.000948855
-0.0139297
0.00245117
-0.0134908
0.00246118
-0.0130595
0.00289001
-0.014882
0.00507151
-0.0196989
0.00313019
0.400003
1.04106
1.02417
1.03601
1.03081
1.03793
1.02953
1.04073
1.03031
1.04117
1.02914
1.04014
1.02996
1.04006
1.02896
1.04085
1.02935
1.039
1.02999
1.04033
1.02992
1.04041
1.02895
1.04062
1.0303
1.04111
1.02907
1.04047
1.0308
1.04101
1.0279
1.03965
1.01803
1.02866
1.17409
0.802277
1.13979
0
-0.002217
-0.00704225
-0.0119275
-0.013514
-0.0148264
-0.0166154
-0.0146618
-0.020846
-0.0751685
0.00109867
0.000636237
-0.000742813
-0.00765499
0.00140388
-0.00764589
-0.00760812
-0.00741538
-0.00716625
-0.00734873
-0.00748974
-0.00794855
-0.00745896
-0.000143253
0
0
0
0.00156713
0.00167586
0.000742144
1.1783
1.17413
0.594713
-0.00129962
0.00133508
-0.0430738
0.00419742
-0.00199312
0.000829249
-1.38043e-58
0
0
-5.05828e-53
5.71964e-44
0
-1.95393e-54
0
0
0
0
0
0
0
0
0
0
0
0
0
1.66364e-43
2.6879e-39
5.91533e-39
2.45901e-39
1.90847e-37
1.29694e-34
5.83486e-35
7.35358e-35
6.23686e-35
1.09455e-34
1.22577e-34
-8.76963e-33
-1.36289e-31
-4.0963e-31
-3.40646e-31
-1.29538e-29
-1.4391e-28
-2.70048e-27
-4.19402e-27
-2.48246e-27
-2.4433e-27
-3.1288e-27
-2.14158e-27
-4.34677e-27
-2.16427e-27
-1.46367e-27
-1.6425e-27
-9.5505e-28
-5.8567e-28
-4.38009e-28
-1.90792e-28
-1.23236e-28
-6.25375e-29
-3.81156e-29
-2.26427e-29
-1.20662e-29
-5.88931e-30
-3.11362e-30
-1.29182e-30
-7.53955e-31
-3.11542e-31
-1.41424e-31
-9.19194e-32
-4.42712e-32
-1.68645e-32
-8.64505e-33
-3.62852e-33
-1.87619e-33
-8.59227e-34
-3.32837e-34
-1.86895e-34
-8.81571e-35
-3.14711e-35
-1.68969e-35
-6.38004e-36
-2.68061e-36
-9.516e-37
-3.4295e-37
-1.52256e-37
-5.31887e-38
-2.074e-38
-7.25856e-39
-2.23095e-39
-7.5827e-40
-2.40149e-40
-6.36852e-41
-1.78965e-41
-3.25494e-42
-5.08819e-43
-4.98048e-44
-2.64225e-45
-3.39068e-46
-2.63993e-47
-5.01209e-50
-2.07771e-49
-1.74877e-49
-6.05805e-50
-6.42719e-51
-7.04192e-52
-7.15549e-53
-1.08265e-54
-2.00377e-57
0
0
0
0
-0.0445086
3.77988e-35
1.05821e-33
9.1846e-33
5.51574e-32
2.16603e-31
5.09806e-31
1.15286e-30
2.44379e-30
4.68936e-30
7.6351e-30
1.32696e-29
2.45038e-29
3.77519e-29
4.8318e-29
5.09766e-29
4.33036e-29
3.04485e-29
1.90551e-29
1.13824e-29
5.57681e-30
2.48024e-30
1.11988e-30
4.39007e-31
1.27832e-31
2.8123e-32
3.95457e-33
4.00532e-34
2.97462e-35
1.65878e-36
4.96693e-38
4.25489e-40
-1.02848e-41
-2.36788e-43
-1.07871e-45
-8.69917e-49
3.15065e-52
-6.73589e-58
-8.62204e-60
-3.65137e-66
-9.1401e-71
-1.93079e-79
-1.57973e-85
-5.98053e-97
0
0.000180608
0.00612267
0.0974607
0.000193038
0
-0.00469857
-0.00914025
-0.0124753
-0.0141868
-0.0160371
-0.016041
-0.0169341
-0.00211565
-0.0301648
0.0014319
-0.00776393
-0.00743892
-0.00741163
0.00141578
0.00140687
-0.00713239
-0.0073624
-0.00763941
-0.00781975
-0.00772391
8.78835e-05
-0.00859408
0
0
0
-0.0012838
0.00144666
0.00145161
0.0014461
0.00142588
0.00270044
0.00223399
0.00226322
0.0028318
0.00106191
-0.00203574
-4.36214e-98
-3.28722e-88
-5.11933e-81
-1.98294e-72
-1.54378e-67
-4.78827e-62
-6.78799e-58
-5.39527e-55
-2.51427e-50
-9.04647e-47
-4.55442e-44
-4.07164e-42
-4.17877e-41
1.24089e-38
6.40586e-37
1.49514e-35
2.11679e-34
2.46832e-33
1.9582e-32
1.02651e-31
3.90622e-31
1.07954e-30
2.40011e-30
5.46603e-30
1.16079e-29
2.04805e-29
3.28083e-29
4.92523e-29
6.12414e-29
6.0748e-29
4.94666e-29
3.40241e-29
1.87047e-29
1.03838e-29
6.54356e-30
3.47915e-30
1.72883e-30
7.40908e-31
3.32033e-31
9.56104e-32
-2.19949e-57
-6.69143e-56
-1.85909e-53
-2.04938e-52
-2.37956e-51
-2.6284e-50
-1.10367e-49
-3.30122e-49
-5.4106e-50
-4.73048e-48
-1.34857e-46
-9.72004e-46
-1.43984e-44
-2.23556e-43
-1.45304e-42
-1.01054e-41
-3.76881e-41
-1.50379e-40
-5.82622e-40
-1.48084e-39
-5.00455e-39
-1.46416e-38
-3.67271e-38
-1.13556e-37
-2.55567e-37
-6.61186e-37
-1.92064e-36
-5.72072e-36
-1.22686e-35
-2.32267e-35
-5.85532e-35
-1.59667e-34
-2.14334e-34
-5.58673e-34
-1.4217e-33
-2.44404e-33
-5.86391e-33
-1.09476e-32
-2.87277e-32
-6.41784e-32
-9.4965e-32
-1.92191e-31
-4.55449e-31
-9.34932e-31
-2.00125e-30
-3.74249e-30
-7.52443e-30
-1.79652e-29
-2.28134e-29
-3.97008e-29
-7.13222e-29
-1.15766e-28
-2.66136e-28
-3.44192e-28
-5.07697e-28
-1.23683e-27
-7.49914e-28
-1.01643e-27
-1.91245e-27
-2.01709e-27
-1.49876e-27
0
0
-1.14403e-27
-9.49307e-28
-9.90819e-28
-4.32999e-28
6.82803e-28
8.07975e-29
7.65373e-31
-1.29321e-32
-4.29935e-32
2.34572e-32
-8.31786e-33
5.35056e-35
3.14659e-36
-5.37678e-35
3.47671e-35
8.22355e-35
-3.14754e-37
1.75974e-38
4.5438e-39
1.80313e-39
-1.51241e-42
0
0
0
0
-5.30611e-06
0.00147189
0.00145839
0.0014181
0.00141881
0.00141102
0.00138848
-0.109423
-0.00232921
0.00430067
-0.000185905
0.000344198
-0.000213202
0.000336621
-1.43429e-96
-3.88238e-85
-4.62604e-79
-2.22771e-70
-8.70098e-66
-2.0336e-59
-1.01429e-57
7.52928e-52
-2.10048e-48
-2.56835e-45
-5.16938e-43
-2.04524e-41
1.07281e-39
1.09594e-37
3.40782e-36
5.74699e-35
7.61592e-34
7.09244e-33
4.77781e-32
2.07716e-31
6.71357e-31
1.64469e-30
3.65281e-30
8.03017e-30
1.58373e-29
2.58519e-29
4.11784e-29
5.61649e-29
6.28365e-29
5.59983e-29
4.18253e-29
2.59796e-29
1.3481e-29
8.30601e-30
4.84453e-30
2.4967e-30
1.09829e-30
5.08753e-31
1.91779e-31
0
9.947e-36
-2.49713e-57
-1.34542e-54
-9.05349e-53
-8.813e-52
-8.12081e-51
-7.6138e-50
-2.18156e-49
-2.60307e-49
-6.27193e-50
-3.28724e-47
-4.25055e-46
-3.30794e-45
-6.23418e-44
-6.36828e-43
-4.04789e-42
-2.24954e-41
-7.96316e-41
-2.98518e-40
-9.64999e-40
-2.79679e-39
-9.13209e-39
-2.60493e-38
-6.61533e-38
-1.90804e-37
-4.24225e-37
-1.15244e-36
-3.24931e-36
-7.61441e-36
-1.95977e-35
-3.58365e-35
-9.70347e-35
-1.95048e-34
-3.48801e-34
-8.83974e-34
-1.90184e-33
-3.96058e-33
-9.43382e-33
-1.7263e-32
-4.62893e-32
-9.62981e-32
-1.46549e-31
-3.02314e-31
-7.95608e-31
-1.26119e-30
-3.05844e-30
-5.89752e-30
-1.16013e-29
-2.02003e-29
-3.45566e-29
-6.0539e-29
-1.25518e-28
-1.75879e-28
-4.5233e-28
-5.28127e-28
-8.05865e-28
-1.26791e-27
-1.14809e-27
-1.4633e-27
-3.76116e-27
-3.49294e-28
-2.03587e-27
-1.74193e-27
-9.66101e-28
-1.0242e-27
-6.19593e-28
-8.40978e-29
-1.44766e-29
3.22653e-31
-4.6163e-31
-1.45473e-31
1.47108e-32
1.7243e-34
8.98208e-35
-1.38677e-35
8.08707e-35
5.16632e-35
1.31398e-34
5.66969e-38
2.90227e-39
7.24946e-39
0
2.63852e-39
2.0952e-43
0
0
0
0
0
0
0
0
0
0
0
0
0
1.58281e-32
2.07622e-33
8.20889e-35
4.76945e-34
6.45359e-33
3.89679e-32
-0.000375186
-0.000629837
-0.000874359
0.00143825
0.00141686
0.001383
0.00136294
0
0
0
0
0
0
0
0
0
0
0
0
0
0
0
0
0
0
0
0
0
0
0
0
0
0
0
0
0
0
0
0
0
0
0
0
0
0
0
0
0
0
0
0
0
0
0
0
0
0
0
0
0
0
0
0
0
0
0
0
0
0
0
0
0
0
0
0
0
0
0
0
0
0
0
0
0
0
0
0
0
0
0
0
0
0
0
0
0
0
0
0
0
0
0
0
0
0
0
0
0
0
0
0
0
0
0
0
0
0
0
0
0
0
0
0
0
0
0
0
0
0
0
0
0
0
0
0
0
0
0
0
0
0
0
0
0
0
0
0
0
0
0
0
0
0
0
0
0
0
0
0
0
0
0
0
0
0
0
0
0
0
0
0
0
0
0
0
0
0
0
0
0
0
0
0
0
0
0
0
0
0
0
0
0
0
0
0
0
0
-1.30568e-48
7.0159e-44
1.93003e-32
0.000379235
0
0
0
0
0
0
0
0
0
6.86568e-37
-1.0931e-25
0
0
0
0
0
0
0
0
0
0
3.80451e-41
5.55005e-39
-1.36686e-38
8.33534e-37
0
0
2.83531e-37
1.46671e-37
6.39015e-35
6.62558e-33
5.51391e-33
3.69891e-33
1.86106e-32
1.32282e-32
8.22771e-33
-8.02236e-30
-9.98433e-30
-2.3064e-29
-3.03691e-28
-1.19632e-27
-1.51078e-26
-2.41062e-25
-3.86637e-25
-2.01331e-25
-1.36783e-25
-3.24326e-26
0
0
-1.28858e-25
-1.54808e-25
-1.856e-25
-9.2044e-26
-5.68668e-26
-4.95589e-26
-2.78575e-26
-1.41484e-26
-9.08437e-27
-4.25527e-27
-2.80176e-27
-1.22848e-27
-8.64693e-28
-5.55419e-28
-2.22872e-28
-1.07437e-28
-5.43378e-29
-2.57871e-29
-1.57844e-29
-6.5532e-30
-2.75207e-30
-1.59182e-30
-7.32413e-31
-3.37766e-31
-1.33731e-31
-6.50326e-32
-3.99459e-32
-1.67582e-32
-6.88115e-33
-3.39265e-33
-1.23665e-33
-5.3589e-34
-2.19789e-34
-8.60042e-35
-3.40006e-35
-1.12106e-35
-4.0455e-36
-1.59103e-36
-5.65817e-37
-2.19001e-37
-7.14382e-38
-2.51784e-38
-9.54653e-39
-2.64114e-39
-5.85617e-40
-1.58577e-40
-2.45529e-41
-4.55419e-42
-2.9678e-43
-2.6915e-44
-2.74897e-45
-4.674e-47
5.17375e-48
-7.23419e-48
-2.71774e-48
-1.04074e-48
-9.47577e-50
-6.77677e-51
-4.14389e-52
-1.61342e-53
0
0
0
0
0
0
0
0
0
0
0
0
0
0
0
0
0
0
0
0
0
0
0
0
0
0
0
0
0
0
0
0
0
0
0
0
0
0
0
0
0
0
0
0
0
0
0
0
0
0
0
0
0
0
0
0
0
0
0
0
0
0
0
0
0
0
0
0
0
0
0
0
0
0
0
0
0
0
0
0
0
0
0
0
0
0
0
0
0
0
0
0
0
0
0
0
0
0
0
0
0
0
0
0
0
0
0
0
0
0
0
0
0
0
0
0
0
0
0
0
0
0
0
0
0
0
0
0
0
0
0
0
0
0
0
0
0
0
0
0
0
0
0
0
0
0
0
0
0
0
0
0
0
0
0
0
0
0
0
0
0
0
0
0
1.50605e-120
1.8766e-120
2.28147e-120
-3.9027e-120
2.90069e-120
-4.18122e-120
5.82198e-116
7.26911e-116
3.70979e-116
4.62677e-116
2.34627e-116
2.965e-116
1.22745e-115
1.52427e-115
7.73849e-116
9.67129e-116
5.01422e-116
6.4939e-116
1.77142e-115
2.20623e-115
2.79195e-115
3.45014e-115
5.02841e-115
-1.2705e-114
5.7542e-115
-5.64795e-115
7.96702e-111
9.93716e-111
6.84177e-111
-1.93105e-111
5.8893e-111
-1.39938e-111
2.11543e-108
2.61405e-108
3.67354e-108
-8.18168e-108
4.48594e-107
-1.95999e-106
4.3553e-105
5.20685e-105
4.47997e-105
-3.38224e-105
7.7616e-104
8.87526e-104
4.58691e-104
4.83599e-104
2.81271e-104
2.9056e-104
3.76274e-103
4.57811e-103
5.94967e-103
7.30374e-103
5.69772e-103
6.99172e-103
3.93728e-103
2.73463e-103
2.67028e-103
1.96574e-103
2.67488e-102
3.23619e-102
1.61662e-102
1.67773e-102
9.89216e-103
1.0649e-102
3.43405e-102
4.14518e-102
2.17291e-102
2.01493e-102
1.49213e-102
6.90473e-103
1.60567e-101
1.92709e-101
9.87816e-102
1.12041e-101
2.45138e-101
3.10181e-101
1.32354e-101
1.59229e-101
1.07324e-101
1.30492e-101
6.56967e-102
6.04801e-102
1.13256e-101
1.30123e-101
6.68423e-102
7.51659e-102
4.69548e-102
1.83384e-102
3.36437e-102
1.17696e-102
1.63941e-100
2.02666e-100
1.46238e-100
-2.7904e-101
1.13633e-100
2.41375e-101
1.42331e-99
1.71956e-99
8.90206e-100
9.85834e-100
2.827e-99
3.58393e-99
1.63318e-99
1.99521e-99
9.06722e-100
1.0969e-99
5.07545e-100
5.99851e-100
4.68427e-100
5.56319e-100
2.54942e-100
2.96758e-100
1.52735e-100
1.74756e-100
2.2787e-100
2.75624e-100
2.54159e-100
3.11981e-100
1.53632e-100
1.82957e-100
8.91992e-101
1.05969e-100
1.59868e-100
1.96067e-100
8.80312e-101
1.0852e-100
4.5722e-101
5.76603e-101
4.70483e-101
5.80954e-101
2.40462e-101
2.9334e-101
5.17538e-101
6.56732e-101
2.68253e-101
3.30564e-101
1.48444e-101
1.8305e-101
7.26054e-102
9.25863e-102
3.93023e-102
4.88389e-102
2.69073e-102
3.40864e-102
1.46258e-102
1.80086e-102
8.1188e-103
1.01481e-102
3.00258e-102
3.72926e-102
1.68865e-102
2.1267e-102
9.34109e-103
1.20269e-102
2.5781e-102
3.21398e-102
1.37098e-102
1.72822e-102
7.24372e-103
9.3382e-103
1.33166e-101
1.66244e-101
7.26794e-102
9.06741e-102
1.08539e-101
1.36222e-101
5.83745e-102
7.33957e-102
4.6525e-102
5.78469e-102
2.50245e-102
3.16383e-102
1.32726e-102
1.68045e-102
7.1398e-103
8.85676e-103
3.09308e-103
3.88346e-103
1.55856e-103
1.99077e-103
3.95783e-103
4.93015e-103
1.08045e-103
1.35081e-103
1.82706e-104
2.34745e-104
-4.97686e-105
-6.21475e-105
-6.44227e-105
-8.03767e-105
-2.56324e-105
-3.2467e-105
-2.53066e-105
-3.14494e-105
-9.41049e-106
-1.17467e-105
-2.4432e-106
-3.16396e-106
-6.49113e-107
-8.0948e-107
-1.91396e-107
-2.37908e-107
-1.19777e-107
-1.50625e-107
-3.08825e-108
-3.85181e-108
-3.21126e-109
-3.99141e-109
-7.39384e-110
-9.25569e-110
-1.0519e-110
-1.32789e-110
-2.72929e-111
-3.38763e-111
-3.0778e-112
-3.86678e-112
-2.00241e-113
-2.57865e-113
-1.18643e-112
-1.47579e-112
-1.35966e-113
-1.69402e-113
-7.15811e-110
-9.06209e-110
-1.93581e-109
-2.38249e-109
-2.94788e-110
-3.60777e-110
-1.76921e-104
0
5.80859e-34