/*--------------------------------*- C++ -*----------------------------------*\
  =========                 |
  \\      /  F ield         | OpenFOAM: The Open Source CFD Toolbox
   \\    /   O peration     | Website:  https://openfoam.org
    \\  /    A nd           | Version:  7
     \\/     M anipulation  |
\*---------------------------------------------------------------------------*/
FoamFile
{
    version     2.0;
    format      ascii;
    class       volScalarField;
    location    "0.25";
    object      T;
}
// * * * * * * * * * * * * * * * * * * * * * * * * * * * * * * * * * * * * * //

dimensions      [0 0 0 1 0 0 0];

internalField   nonuniform List<scalar> 
10000
(
0.5
0.0669146
-0.0353169
-0.0277115
-0.0078997
0.00112933
0.00220704
0.000963672
3.87311e-05
-0.000206292
-0.000130491
-2.61206e-05
1.73095e-05
1.68124e-05
5.14411e-06
-1.81971e-06
-2.77479e-06
-1.21127e-06
2.18776e-07
7.44896e-07
6.33896e-07
3.27714e-07
8.31223e-08
-3.74143e-08
-6.65726e-08
-5.34735e-08
-3.11763e-08
-1.38419e-08
-4.0581e-09
1.21423e-10
1.26075e-09
1.1602e-09
7.52939e-10
3.99367e-10
1.77597e-10
6.34295e-11
1.43248e-11
-2.34824e-12
-5.57598e-12
-4.50185e-12
-2.76557e-12
-1.45157e-12
-6.72025e-13
-2.73834e-13
-9.42887e-14
-2.33882e-14
-1.4053e-16
4.92308e-15
4.35753e-15
2.77592e-15
1.5105e-15
7.38e-16
3.29169e-16
1.33932e-16
4.87561e-17
1.49591e-17
3.07152e-18
-3.52965e-19
-9.14195e-19
-7.13321e-19
-4.30045e-19
-2.27434e-19
-1.10039e-19
-4.95305e-20
-2.08421e-20
-8.16437e-21
-2.92927e-21
-9.22983e-22
-2.24231e-22
-1.49304e-23
2.95286e-23
2.75934e-23
1.76459e-23
9.66194e-24
4.821e-24
2.24829e-24
9.9119e-25
4.14814e-25
1.64589e-25
6.14635e-26
2.12289e-26
6.5105e-27
1.5726e-27
1.3294e-28
-1.71578e-28
-1.65457e-28
-1.05989e-28
-5.79994e-29
-2.89989e-29
-1.36163e-29
-6.08406e-30
-2.60373e-30
-1.06982e-30
-4.21653e-31
-1.58698e-31
-5.64701e-32
-1.86094e-32
-5.41699e-33
-1.21347e-33
1.87263e-34
0.933085
0.5
0.14482
-0.0139075
-0.041172
-0.0230292
-0.00507447
0.00215711
0.00250742
0.00101088
3.36731e-07
-0.000254125
-0.000156053
-2.93046e-05
2.36909e-05
2.22107e-05
6.05359e-06
-4.12147e-06
-5.83863e-06
-3.45626e-06
-8.15638e-07
6.11861e-07
9.28647e-07
7.00998e-07
3.69704e-07
1.28935e-07
6.77316e-09
-3.36476e-08
-3.45743e-08
-2.33423e-08
-1.2419e-08
-5.29408e-09
-1.62389e-09
-1.19442e-10
3.09202e-10
3.16201e-10
2.13776e-10
1.1818e-10
5.61004e-11
2.27974e-11
7.44246e-12
1.42154e-12
-4.26875e-13
-7.02612e-13
-5.30226e-13
-3.15217e-13
-1.62808e-13
-7.52597e-14
-3.12115e-14
-1.1345e-14
-3.33112e-15
-5.29021e-16
2.32299e-16
3.109e-16
2.21695e-16
1.28313e-16
6.58187e-17
3.08539e-17
1.33501e-17
5.31535e-18
1.91092e-18
5.87802e-19
1.27688e-19
-5.60951e-21
-2.94651e-20
-2.39099e-20
-1.45997e-20
-7.78209e-21
-3.79639e-21
-1.72822e-21
-7.39602e-22
-2.97444e-22
-1.1146e-22
-3.80602e-23
-1.119e-23
-2.3224e-24
1.21277e-25
5.27295e-25
4.17031e-25
2.50838e-25
1.32673e-25
6.46922e-26
2.9681e-26
1.29358e-26
5.37431e-27
2.12628e-27
7.96213e-28
2.78212e-28
8.78845e-29
2.30804e-29
3.45836e-30
-1.22531e-30
-1.61398e-30
-1.10908e-30
-6.26607e-31
-3.19525e-31
-1.52303e-31
-6.89882e-32
-2.9912e-32
-1.19284e-32
1.03532
0.85518
0.5
0.182448
0.0083033
-0.0419282
-0.0324405
-0.0120084
3.94861e-05
0.00307829
0.00201898
0.000521633
-0.000189431
-0.000257962
-0.000110646
4.36368e-06
3.7447e-05
2.45096e-05
4.34619e-06
-6.51362e-06
-7.96978e-06
-5.12492e-06
-1.96853e-06
-4.99176e-08
6.50893e-07
6.60498e-07
4.35778e-07
2.16741e-07
7.70397e-08
1.00276e-08
-1.25479e-08
-1.47089e-08
-1.04416e-08
-5.85971e-09
-2.73137e-09
-1.02966e-09
-2.62019e-10
1.43412e-11
7.69141e-11
6.6514e-11
4.20494e-11
2.24083e-11
1.04461e-11
4.25002e-12
1.43989e-12
3.33646e-13
-2.17989e-14
-9.21654e-14
-7.65222e-14
-4.74882e-14
-2.53496e-14
-1.21429e-14
-5.28244e-15
-2.07218e-15
-7.08614e-16
-1.89022e-16
-1.90803e-17
2.17851e-17
2.25846e-17
1.50436e-17
8.40792e-18
4.22116e-18
1.95252e-18
8.39236e-19
3.34391e-19
1.21637e-19
3.87467e-20
9.48408e-21
6.20672e-22
-1.27937e-21
-1.19628e-21
-7.65978e-22
-4.19333e-22
-2.08774e-22
-9.68997e-23
-4.23747e-23
-1.75094e-23
-6.81193e-24
-2.46538e-24
-8.06693e-25
-2.21317e-25
-3.7178e-26
9.28362e-27
1.44285e-26
1.02832e-26
5.91819e-27
3.05022e-27
1.46157e-27
6.62272e-28
2.86078e-28
1.18154e-28
4.66096e-29
1.74652e-29
6.13907e-30
1.97024e-30
5.39616e-31
9.75672e-32
-1.42954e-32
-2.8432e-32
-2.43981e-32
1.02771
1.01391
0.817551
0.5
0.206389
0.0268068
-0.0388669
-0.0384381
-0.018417
-0.00302416
0.00283984
0.00281694
0.00117399
2.83643e-05
-0.000305688
-0.000209661
-4.54251e-05
4.0406e-05
4.93782e-05
2.64349e-05
4.2287e-06
-6.58653e-06
-8.13547e-06
-5.60989e-06
-2.65445e-06
-6.98162e-07
1.90147e-07
4.08213e-07
3.37666e-07
2.03623e-07
9.69946e-08
3.47257e-08
6.07769e-09
-3.6529e-09
-5.01993e-09
-3.72158e-09
-2.16635e-09
-1.06418e-09
-4.4237e-10
-1.45795e-10
-2.68117e-11
1.00922e-11
1.53363e-11
1.14557e-11
6.7688e-12
3.46334e-12
1.57386e-12
6.32287e-13
2.15406e-13
5.31016e-14
4.83574e-16
-1.08706e-14
-9.60852e-15
-6.10549e-15
-3.31589e-15
-1.61866e-15
-7.22384e-16
-2.94723e-16
-1.08002e-16
-3.36743e-17
-7.32703e-18
4.15673e-19
1.8058e-18
1.46143e-18
8.9312e-19
4.75856e-19
2.31397e-19
1.04578e-19
4.41719e-20
1.73744e-20
6.26696e-21
1.99192e-21
4.94276e-22
4.10074e-23
-5.82163e-23
-5.65182e-23
-3.65364e-23
-2.0103e-23
-1.0055e-23
-4.69372e-24
-2.06894e-24
-8.64725e-25
-3.42175e-25
-1.27169e-25
-4.35514e-26
-1.31333e-26
-3.03108e-27
-1.4796e-28
4.21099e-28
3.74363e-28
2.33894e-28
1.26277e-28
6.25313e-29
2.91183e-29
1.29045e-29
5.47366e-30
2.22563e-30
8.65814e-31
3.20481e-31
9.4268e-32
1.0079
1.04117
0.991696
0.793611
0.500001
0.223367
0.0421538
-0.0343058
-0.0421186
-0.0239679
-0.00647452
0.00198052
0.00332021
0.00184446
0.000357717
-0.000294494
-0.000322197
-0.000139137
8.48706e-06
6.21814e-05
5.38974e-05
2.69423e-05
5.53903e-06
-4.57825e-06
-6.52644e-06
-4.87416e-06
-2.62807e-06
-1.0073e-06
-1.62926e-07
1.46389e-07
1.88466e-07
1.38135e-07
7.85429e-08
3.64485e-08
1.32322e-08
2.80928e-09
-7.91658e-10
-1.44103e-09
-1.12869e-09
-6.8089e-10
-3.48603e-10
-1.54569e-10
-5.79444e-11
-1.63584e-11
-1.40074e-12
2.45756e-12
2.50727e-12
1.68389e-12
9.41281e-13
4.64964e-13
2.06435e-13
8.18278e-14
2.78568e-14
7.09849e-15
3.58171e-16
-1.16522e-15
-1.08651e-15
-7.02809e-16
-3.86414e-16
-1.91142e-16
-8.68248e-17
-3.63683e-17
-1.39164e-17
-4.71543e-18
-1.28911e-18
-1.75549e-19
1.02056e-19
1.20975e-19
8.30558e-20
4.71698e-20
2.40345e-20
1.13245e-20
4.9955e-21
2.06895e-21
8.00351e-22
2.84433e-22
8.9095e-23
2.16874e-23
1.60956e-24
-2.6712e-24
-2.53033e-24
-1.62119e-24
-8.87904e-25
-4.43207e-25
-2.06931e-25
-9.14456e-26
-3.84276e-26
-1.53487e-26
-5.79309e-27
-2.03697e-27
-6.4616e-28
-1.69681e-28
-2.48281e-29
9.71079e-30
1.24083e-29
8.49639e-30
4.79725e-30
2.44562e-30
1.16277e-30
5.17935e-31
0.998871
1.02303
1.04193
0.973195
0.776636
0.499999
0.236305
0.0551537
-0.0291468
-0.0442077
-0.0286475
-0.00999574
0.000700973
0.00355429
0.0025001
0.000791823
-0.00020187
-0.000427756
-0.000278025
-7.8784e-05
3.65259e-05
6.56753e-05
5.00997e-05
2.50149e-05
6.77553e-06
-1.96923e-06
-4.21276e-06
-3.49881e-06
-2.09404e-06
-9.66296e-07
-3.115e-07
-1.9592e-08
6.91357e-08
7.09051e-08
4.81527e-08
2.63693e-08
1.2081e-08
4.47891e-09
1.10282e-09
-9.35426e-11
-3.54402e-10
-3.00657e-10
-1.88981e-10
-1.00539e-10
-4.68758e-11
-1.90901e-11
-6.47294e-12
-1.49581e-12
1.0689e-13
4.24135e-13
3.51993e-13
2.1887e-13
1.17108e-13
5.62116e-14
2.44817e-14
9.59667e-15
3.26486e-15
8.53642e-16
6.95722e-17
-1.14173e-16
-1.12815e-16
-7.42651e-17
-4.12904e-17
-2.06549e-17
-9.51706e-18
-4.06808e-18
-1.60631e-18
-5.74839e-19
-1.76938e-19
-3.90709e-20
9.67564e-22
8.33044e-21
6.87003e-21
4.22205e-21
2.26121e-21
1.1085e-21
5.07559e-22
2.1883e-22
8.8888e-23
3.37874e-23
1.18008e-23
3.6213e-24
8.49569e-25
4.32248e-26
-1.19762e-25
-1.07695e-25
-6.78057e-26
-3.68014e-26
-1.82767e-26
-8.51311e-27
-3.76212e-27
-1.58496e-27
-6.36672e-28
-2.42759e-28
-8.68785e-29
-2.84738e-29
-8.04638e-30
-1.58329e-30
1.10405e-31
5.13878e-31
0.997793
1.00507
1.03244
1.03887
0.957846
0.763688
0.499995
0.24667
0.0663927
-0.0238004
-0.0451935
-0.0325535
-0.0134331
-0.00085011
0.00357449
0.00315408
0.00136212
3.09397e-05
-0.000466249
-0.000425582
-0.000214614
-4.12508e-05
4.11641e-05
5.58797e-05
4.06106e-05
2.08358e-05
6.93651e-06
3.59562e-08
-2.15987e-06
-2.11568e-06
-1.40306e-06
-7.33848e-07
-3.02849e-07
-8.38511e-08
3.23494e-09
2.5471e-08
2.30095e-08
1.48757e-08
7.96076e-09
3.63473e-09
1.38193e-09
3.82754e-10
1.7881e-11
-7.4358e-11
-7.15038e-11
-4.73116e-11
-2.61794e-11
-1.27484e-11
-5.51926e-12
-2.08425e-12
-6.36075e-13
-1.08442e-13
4.19086e-14
6.02174e-14
4.39929e-14
2.58311e-14
1.33527e-14
6.26352e-15
2.68654e-15
1.04438e-15
3.55683e-16
9.52854e-17
1.03348e-17
-1.02629e-17
-1.08996e-17
-7.31927e-18
-4.11707e-18
-2.08159e-18
-9.7128e-19
-4.22263e-19
-1.70917e-19
-6.36555e-20
-2.11254e-20
-5.69946e-21
-7.88735e-22
4.18091e-22
5.0268e-22
3.44964e-22
1.9593e-22
1.0011e-22
4.74841e-23
2.11955e-23
8.94788e-24
3.56792e-24
1.33264e-24
4.56869e-25
1.36818e-25
3.05003e-26
4.5101e-28
-5.16969e-27
-4.37721e-27
-2.69869e-27
-1.4486e-27
-7.14744e-28
-3.31713e-28
-1.464e-28
-6.17386e-29
-2.48914e-29
-9.56684e-30
-3.00761e-30
0.999036
0.997843
1.01201
1.03844
1.0343
0.944839
0.753328
0.500004
0.25527
0.0762597
-0.0184887
-0.0454393
-0.0358578
-0.0167843
-0.00264157
0.00337274
0.00378646
0.00208339
0.000464662
-0.0003549
-0.00050876
-0.000354078
-0.000155208
-2.3086e-05
3.27437e-05
4.06104e-05
2.92348e-05
1.55789e-05
6.00941e-06
1.05041e-06
-7.93032e-07
-1.07689e-06
-8.07816e-07
-4.69624e-07
-2.24058e-07
-8.50569e-08
-2.06086e-08
2.8784e-09
7.97032e-09
6.66945e-09
4.17849e-09
2.20759e-09
1.01093e-09
3.94815e-10
1.20163e-10
1.66516e-11
-1.27307e-11
-1.52668e-11
-1.08152e-11
-6.24997e-12
-3.17041e-12
-1.44257e-12
-5.86759e-13
-2.06387e-13
-5.59158e-14
-5.16115e-15
7.31695e-15
7.49504e-15
5.02081e-15
2.82178e-15
1.41928e-15
6.53653e-16
2.77051e-16
1.07092e-16
3.65832e-17
1.00429e-17
1.33814e-18
-8.45159e-19
-9.8896e-19
-6.80182e-19
-3.87584e-19
-1.98092e-19
-9.35261e-20
-4.127e-20
-1.70525e-20
-6.55191e-21
-2.29318e-21
-6.93332e-22
-1.51075e-22
3.46818e-24
3.13451e-23
2.57243e-23
1.57615e-23
8.43915e-24
4.14946e-24
1.91323e-24
8.34911e-25
3.45736e-25
1.35467e-25
4.97314e-26
1.67215e-26
4.87066e-27
1.01639e-27
-3.68735e-29
-2.13941e-28
-1.70691e-28
-1.02948e-28
-5.46144e-29
-2.67062e-29
-1.21678e-29
0.999961
0.997493
0.999963
1.01841
1.04211
1.02914
0.933624
0.744753
0.500004
0.262564
0.0850199
-0.0133274
-0.0452119
-0.0387606
-0.0201598
-0.00476937
0.00282748
0.0042774
0.00288528
0.0010991
-3.97323e-05
-0.000453194
-0.000431711
-0.00026283
-0.00010758
-1.56805e-05
2.09049e-05
2.59519e-05
1.89545e-05
1.05335e-05
4.52821e-06
1.27132e-06
-8.68198e-08
-4.45181e-07
-4.0165e-07
-2.60477e-07
-1.38774e-07
-6.20106e-08
-2.21251e-08
-4.80644e-09
1.10226e-09
2.21146e-09
1.76672e-09
1.08609e-09
5.7063e-10
2.63195e-10
1.05586e-10
3.46776e-11
7.11031e-12
-1.46488e-12
-2.90738e-12
-2.27077e-12
-1.38122e-12
-7.30127e-13
-3.47071e-13
-1.49441e-13
-5.75263e-14
-1.88628e-14
-4.42031e-15
8.13048e-17
9.90857e-16
8.46754e-16
5.32755e-16
2.89359e-16
1.42392e-16
6.46277e-17
2.71456e-17
1.04571e-17
3.5895e-18
1.01008e-18
1.57959e-19
-6.31111e-20
-8.48009e-20
-6.00685e-20
-3.47388e-20
-1.79575e-20
-8.57591e-21
-3.83595e-21
-1.61347e-21
-6.35895e-22
-2.31699e-22
-7.55071e-23
-2.00596e-23
-2.73223e-24
1.45038e-24
1.72667e-24
1.179e-24
6.68234e-25
3.41701e-25
1.62724e-25
7.32095e-26
3.13081e-26
1.2737e-26
4.90854e-27
1.77158e-27
5.83765e-28
1.64828e-28
3.15904e-29
-3.23348e-30
-1.12949e-29
1.00021
0.99899
0.996924
1.00302
1.02396
1.04421
1.02383
0.923783
0.737427
0.49995
0.268872
0.0929363
-0.00828519
-0.044616
-0.0413758
-0.0236621
-0.00736963
0.00174805
0.00441561
0.00359348
0.00183546
0.000457879
-0.000227954
-0.0003963
-0.000316541
-0.000179412
-7.19673e-05
-1.23197e-05
1.10352e-05
1.48107e-05
1.11848e-05
6.49768e-06
3.03803e-06
1.07177e-06
1.75577e-07
-1.28068e-07
-1.69543e-07
-1.2644e-07
-7.47118e-08
-3.74435e-08
-1.59628e-08
-5.45147e-09
-1.0978e-09
3.19216e-10
5.5802e-10
4.34455e-10
2.64498e-10
1.38941e-10
6.47277e-11
2.66479e-11
9.31324e-12
2.37189e-12
4.87005e-14
-4.80108e-13
-4.37756e-13
-2.84081e-13
-1.57002e-13
-7.77785e-14
-3.51167e-14
-1.44287e-14
-5.28069e-15
-1.61068e-15
-3.11504e-16
6.0535e-17
1.16464e-16
8.87325e-17
5.32518e-17
2.8149e-17
1.36103e-17
6.10618e-18
2.54759e-18
9.79896e-19
3.38475e-19
9.76348e-20
1.7377e-20
-4.14853e-21
-6.8987e-21
-5.06995e-21
-2.98278e-21
-1.5608e-21
-7.53941e-22
-3.41547e-22
-1.45954e-22
-5.87721e-23
-2.21087e-23
-7.6034e-24
-2.26523e-24
-4.87197e-25
1.1681e-26
9.99611e-26
8.15416e-26
4.98083e-26
2.66544e-26
1.31337e-26
6.08718e-27
2.68029e-27
1.12552e-27
4.50457e-28
1.71087e-28
5.15294e-29
1.00013
1
0.997982
0.997155
1.00647
1.02865
1.04522
1.01854
0.914983
0.730996
0.499863
0.274512
0.10036
-0.00312482
-0.0435085
-0.0436021
-0.0272363
-0.010476
-6.22589e-06
0.0039865
0.00398382
0.00249735
0.00103524
0.000132008
-0.000238589
-0.000288221
-0.000209468
-0.000114479
-4.63875e-05
-9.80923e-06
4.68687e-06
7.59572e-06
6.05035e-06
3.68607e-06
1.84706e-06
7.49323e-07
2.11224e-07
-6.84249e-10
-5.66483e-08
-5.32726e-08
-3.54665e-08
-1.96557e-08
-9.42876e-09
-3.88883e-09
-1.29177e-09
-2.51095e-10
7.76783e-11
1.30114e-10
1.00283e-10
6.09019e-11
3.21173e-11
1.51407e-11
6.38842e-12
2.3505e-12
6.88324e-13
9.79512e-14
-6.27436e-14
-7.67901e-14
-5.44537e-14
-3.16834e-14
-1.63641e-14
-7.70901e-15
-3.33569e-15
-1.31547e-15
-4.59019e-16
-1.29593e-16
-1.88805e-17
9.95429e-18
1.24392e-17
8.75219e-18
5.06346e-18
2.61879e-18
1.24834e-18
5.54964e-19
2.30428e-19
8.86312e-20
3.08417e-20
9.11626e-21
1.8053e-21
-2.19779e-22
-5.33313e-22
-4.10664e-22
-2.46502e-22
-1.30715e-22
-6.3879e-23
-2.92929e-23
-1.26996e-23
-5.2101e-24
-2.01201e-24
-7.20915e-25
-2.31712e-25
-6.0873e-26
-8.22599e-27
4.3207e-27
5.1222e-27
3.48696e-27
1.9741e-27
1.01053e-27
4.82248e-28
2.11358e-28
1.00003
1.00026
0.999476
0.997174
0.99802
1.01001
1.03257
1.04544
1.01333
0.907025
0.725268
0.499801
0.279798
0.107713
0.00257398
-0.0415008
-0.0450846
-0.030591
-0.0139138
-0.00240969
0.00288383
0.00387643
0.00289833
0.00154657
0.000538697
4.44384e-06
-0.000181538
-0.000185844
-0.000128028
-6.89371e-05
-2.86913e-05
-7.34716e-06
1.35608e-06
3.4884e-06
3.01162e-06
1.93506e-06
1.03079e-06
4.61269e-07
1.63796e-07
3.37843e-08
-1.06611e-08
-1.86865e-08
-1.48028e-08
-9.13911e-09
-4.8381e-09
-2.24904e-09
-9.07314e-10
-2.97278e-10
-5.81e-11
1.6396e-11
2.83238e-11
2.19004e-11
1.33483e-11
7.09035e-12
3.38683e-12
1.46254e-12
5.61865e-13
1.8147e-13
3.95666e-14
-3.95147e-15
-1.1942e-14
-9.69411e-15
-6.01311e-15
-3.24869e-15
-1.59403e-15
-7.21009e-16
-3.00896e-16
-1.14373e-16
-3.81103e-17
-9.8806e-18
-8.69627e-19
1.23193e-18
1.23721e-18
8.21129e-19
4.6145e-19
2.3447e-19
1.1049e-19
4.87701e-20
2.01842e-20
7.77316e-21
2.72708e-21
8.25428e-22
1.78729e-22
-6.00672e-24
-3.9141e-23
-3.20137e-23
-1.96773e-23
-1.05889e-23
-5.23731e-24
-2.43043e-24
-1.0679e-24
-4.45433e-25
-1.75878e-25
-6.51074e-26
-2.2101e-26
-6.51809e-27
-1.39383e-27
2.91696e-29
2.75787e-28
2.62529e-28
0.999983
1.00016
1.00018
0.998808
0.996691
0.999356
1.01345
1.03575
1.04512
1.00838
0.899811
0.720034
0.499693
0.284907
0.115369
0.00927639
-0.0380933
-0.0453125
-0.0332452
-0.0172976
-0.00522935
0.00117668
0.00321336
0.00291509
0.00186049
0.000888078
0.000267682
-2.74736e-05
-0.000116885
-0.000109546
-7.32932e-05
-3.94128e-05
-1.6976e-05
-5.0752e-06
-4.40097e-08
1.40684e-06
1.37871e-06
9.4379e-07
5.32857e-07
2.57383e-07
1.04684e-07
3.23813e-08
3.74879e-09
-4.6533e-09
-5.28063e-09
-3.76696e-09
-2.20551e-09
-1.12932e-09
-5.13474e-10
-2.04394e-10
-6.68327e-11
-1.35795e-11
2.99175e-12
5.79169e-12
4.55059e-12
2.79906e-12
1.50184e-12
7.27624e-13
3.21169e-13
1.2802e-13
4.44714e-14
1.1992e-14
1.14043e-15
-1.52884e-15
-1.58469e-15
-1.07201e-15
-6.10156e-16
-3.12122e-16
-1.47045e-16
-6.42957e-17
-2.60014e-17
-9.55622e-18
-3.04295e-18
-7.16272e-19
-1.12677e-20
1.3258e-19
1.16333e-19
7.38506e-20
4.05429e-20
2.03047e-20
9.47962e-21
4.16134e-21
1.71883e-21
6.634e-22
2.34776e-22
7.26994e-23
1.69759e-23
5.87193e-25
-2.7149e-24
-2.40606e-24
-1.52136e-24
-8.32237e-25
-4.16864e-25
-1.95753e-25
-8.71105e-26
-3.68844e-26
-1.48469e-26
-5.64559e-27
-2.00308e-27
-4.96665e-28
0.999983
1.00004
1.00025
0.999938
0.998169
0.996561
1.00091
1.01656
1.0384
1.04469
1.00388
0.893066
0.714773
0.499145
0.289751
0.123493
0.01729
-0.0328874
-0.0438082
-0.0346759
-0.0201329
-0.00807841
-0.000900756
0.00208147
0.00252887
0.00190541
0.00109893
0.000485106
0.000131145
-2.47541e-05
-6.71667e-05
-6.00666e-05
-3.96583e-05
-2.1483e-05
-9.59758e-06
-3.23954e-06
-4.46452e-07
4.6915e-07
5.76439e-07
4.28145e-07
2.56675e-07
1.32346e-07
5.91535e-08
2.20781e-08
5.84982e-09
-1.94643e-11
-1.4571e-09
-1.34816e-09
-8.96364e-10
-5.04997e-10
-2.52389e-10
-1.13041e-10
-4.47076e-11
-1.47233e-11
-3.17881e-12
4.48224e-13
1.11551e-12
9.03141e-13
5.63693e-13
3.06322e-13
1.50665e-13
6.7903e-14
2.79483e-14
1.0274e-14
3.15608e-15
6.18578e-16
-1.16712e-16
-2.3128e-16
-1.78472e-16
-1.08421e-16
-5.80507e-17
-2.8462e-17
-1.29698e-17
-5.50984e-18
-2.16711e-18
-7.7203e-19
-2.34961e-19
-4.94255e-20
3.87263e-21
1.30554e-20
1.04472e-20
6.40539e-21
3.45022e-21
1.70758e-21
7.9126e-22
3.45909e-22
1.42744e-22
5.52569e-23
1.97322e-23
6.24415e-24
1.55499e-24
1.37654e-25
-1.76105e-25
-1.74446e-25
-1.1415e-25
-6.36135e-26
-3.2296e-26
-1.53489e-26
-6.91153e-27
-2.77605e-27
0.999994
0.999986
1.0001
1.00025
0.999639
0.997672
0.996593
1.00236
1.01942
1.04108
1.04466
0.999679
0.885967
0.708461
0.497376
0.29391
0.131919
0.0265964
-0.0257732
-0.0403136
-0.0344914
-0.0219638
-0.0105299
-0.0030225
0.00067804
0.00182202
0.00168521
0.00113597
0.000611916
0.000256408
6.50273e-05
-1.49653e-05
-3.53236e-05
-3.09692e-05
-2.04082e-05
-1.11998e-05
-5.18729e-06
-1.9257e-06
-4.37672e-07
1.01704e-07
2.15842e-07
1.80135e-07
1.15554e-07
6.33337e-08
3.04775e-08
1.27692e-08
4.39714e-09
9.67674e-10
-1.69104e-10
-3.89663e-10
-3.19591e-10
-2.02178e-10
-1.10724e-10
-5.4381e-11
-2.41254e-11
-9.53145e-12
-3.18276e-12
-7.37855e-13
4.36178e-14
2.02192e-13
1.71605e-13
1.09325e-13
6.03328e-14
3.01541e-14
1.38653e-14
5.87112e-15
2.25896e-15
7.58686e-16
1.95763e-16
1.43039e-17
-2.79124e-17
-2.73525e-17
-1.81687e-17
-1.02641e-17
-5.24716e-18
-2.4863e-18
-1.10181e-18
-4.56541e-19
-1.75158e-19
-6.06092e-20
-1.76264e-20
-3.24175e-21
6.68593e-22
1.20591e-21
9.02663e-22
5.38309e-22
2.85472e-22
1.39918e-22
6.4448e-23
2.80893e-23
1.15905e-23
4.50269e-24
1.62268e-24
5.24128e-25
1.37943e-25
1.8204e-26
-1.04395e-26
-1.21948e-26
-8.28801e-27
-4.93793e-27
1
0.99999
0.999995
1.00014
1.00026
0.999409
0.99716
0.996418
1.00369
1.02268
1.04456
1.04509
0.99482
0.876986
0.699637
0.493319
0.296675
0.140134
0.0367942
-0.0170134
-0.0348958
-0.0325529
-0.0225005
-0.0122348
-0.00486676
-0.000755839
0.000940761
0.00126581
0.00101188
0.000633915
0.000326119
0.000132544
3.30948e-05
-7.18461e-06
-1.72232e-05
-1.51169e-05
-1.00314e-05
-5.59902e-06
-2.68426e-06
-1.07487e-06
-3.13659e-07
-1.4808e-08
6.87267e-08
6.96256e-08
4.86028e-08
2.83618e-08
1.45509e-08
6.62731e-09
2.62687e-09
8.37417e-10
1.45429e-10
-6.50617e-11
-9.43623e-11
-7.15165e-11
-4.36357e-11
-2.34038e-11
-1.13549e-11
-5.01119e-12
-1.98585e-12
-6.75395e-13
-1.68458e-13
-2.78921e-15
3.42886e-14
3.12431e-14
2.0458e-14
1.14997e-14
5.84677e-15
2.74151e-15
1.19099e-15
4.7594e-16
1.70688e-16
5.12646e-17
9.73994e-18
-1.99666e-18
-3.73206e-18
-2.84721e-18
-1.72242e-18
-9.2273e-19
-4.54797e-19
-2.09509e-19
-9.06642e-20
-3.67564e-20
-1.379e-20
-4.64311e-21
-1.28986e-21
-2.01093e-22
7.83728e-23
1.06e-22
7.54508e-23
4.39999e-23
2.30363e-23
1.12012e-23
5.13501e-24
2.23342e-24
9.22157e-25
3.5967e-25
1.30809e-25
4.30724e-26
1.19781e-26
4.70007e-28
1
1.00001
0.999969
0.999975
1.00025
1.00039
0.999085
0.996201
0.995953
1.00563
1.02738
1.04917
1.04501
0.987401
0.864079
0.686667
0.485825
0.297179
0.147367
0.0471684
-0.00720187
-0.0279431
-0.029008
-0.0216819
-0.0129999
-0.00619479
-0.00200273
4.60806e-05
0.000745382
0.000773462
0.0005644
0.000336365
0.000167962
6.7387e-05
1.72725e-05
-2.74023e-06
-7.83145e-06
-7.01546e-06
-4.72417e-06
-2.6899e-06
-1.33251e-06
-5.67457e-07
-1.93068e-07
-3.6258e-08
1.55346e-08
2.41568e-08
1.90034e-08
1.1907e-08
6.49438e-09
3.16584e-09
1.37844e-09
5.207e-10
1.54117e-10
1.93634e-11
-1.82754e-11
-2.12818e-11
-1.52716e-11
-9.07342e-12
-4.79295e-12
-2.30655e-12
-1.01603e-12
-4.05085e-13
-1.40693e-13
-3.76333e-14
-3.10208e-15
5.36231e-15
5.44569e-15
3.6975e-15
2.12451e-15
1.10032e-15
5.26034e-16
2.33979e-16
9.65808e-17
3.64444e-17
1.20751e-17
3.10252e-18
2.48501e-19
-4.12884e-19
-4.09585e-19
-2.72863e-19
-1.54679e-19
-7.95452e-20
-3.80595e-20
-1.71217e-20
-7.25911e-21
-2.88688e-21
-1.06139e-21
-3.4832e-22
-9.24017e-23
-1.16689e-23
7.85299e-24
8.94992e-24
6.12725e-24
3.50867e-24
1.81766e-24
8.78104e-25
4.01074e-25
1.74223e-25
7.20933e-26
2.4967e-26
0.999999
1.00002
0.999989
0.999893
1.00003
1.00057
1.00049
0.998149
0.994602
0.995949
1.00945
1.03412
1.05399
1.04222
0.974867
0.845128
0.668097
0.473895
0.294579
0.152765
0.0568493
0.00286768
-0.0200724
-0.0242414
-0.0196657
-0.0128094
-0.0068909
-0.00291454
-0.000727653
0.000222853
0.000481492
0.000433635
0.00029765
0.000171436
8.41048e-05
3.37646e-05
9.13825e-06
-6.91627e-07
-3.32102e-06
-3.1019e-06
-2.13584e-06
-1.24407e-06
-6.35871e-07
-2.85058e-07
-1.07737e-07
-2.93685e-08
-3.97167e-10
7.08406e-09
6.81679e-09
4.67594e-09
2.72076e-09
1.4102e-09
6.60025e-10
2.76877e-10
1.00318e-10
2.7671e-11
2.12822e-12
-4.43324e-12
-4.5425e-12
-3.13554e-12
-1.82695e-12
-9.54683e-13
-4.57174e-13
-2.01531e-13
-8.10111e-14
-2.8769e-14
-8.20465e-15
-1.13252e-15
7.47507e-16
9.05844e-16
6.45506e-16
3.80802e-16
2.01265e-16
9.81231e-17
4.46242e-17
1.8951e-17
7.45123e-18
2.64714e-18
7.96248e-19
1.58068e-19
-2.30289e-20
-5.17813e-20
-4.03341e-20
-2.46313e-20
-1.3304e-20
-6.62218e-21
-3.09128e-21
-1.36282e-21
-5.67597e-22
-2.21918e-22
-8.01101e-23
-2.56664e-23
-6.50141e-24
-6.18767e-25
7.18405e-25
7.30583e-25
4.85062e-25
2.73678e-25
1.40344e-25
6.56395e-26
0.999997
1.00002
1.00001
0.999893
0.999865
1.00036
1.00099
0.999975
0.996264
0.993074
0.997904
1.01612
1.04215
1.05661
1.03368
0.95462
0.818426
0.642947
0.456877
0.288235
0.155572
0.0649959
0.0123682
-0.0119925
-0.018774
-0.0167664
-0.0117977
-0.00696201
-0.00342885
-0.00129595
-0.000224747
0.000192679
0.000276763
0.000228101
0.000150089
8.44917e-05
4.10956e-05
1.66702e-05
4.83033e-06
5.89238e-08
-1.30446e-06
-1.30686e-06
-9.28016e-07
-5.54647e-07
-2.92246e-07
-1.36918e-07
-5.59168e-08
-1.84365e-08
-3.39429e-09
1.40608e-09
2.1745e-09
1.70368e-09
1.06983e-09
5.89559e-10
2.93653e-10
1.32998e-10
5.40995e-11
1.8917e-11
4.89064e-12
1.44651e-13
-9.81184e-13
-9.27021e-13
-6.22415e-13
-3.57594e-13
-1.855e-13
-8.86231e-14
-3.91733e-14
-1.58997e-14
-5.7746e-15
-1.74411e-15
-3.21494e-16
8.44309e-17
1.42823e-16
1.08741e-16
6.62493e-17
3.58171e-17
1.78185e-17
8.27822e-18
3.60673e-18
1.46778e-18
5.49747e-19
1.82596e-19
4.82521e-20
5.30975e-21
-5.03726e-21
-5.42477e-21
-3.69663e-21
-2.123e-21
-1.10437e-21
-5.35232e-22
-2.44703e-22
-1.06017e-22
-4.34724e-23
-1.67421e-23
-5.9447e-24
-1.86259e-24
-4.5069e-25
-2.8296e-26
6.08624e-26
6.72138e-26
0.999996
1.00001
1.00003
0.999927
0.999809
1.00012
1.00091
1.00091
0.998363
0.994017
0.993229
1.00311
1.02514
1.04898
1.05354
1.01626
0.924637
0.78303
0.610891
0.434589
0.277838
0.155282
0.0709513
0.0205881
-0.00437018
-0.013152
-0.0133713
-0.0101937
-0.00650866
-0.00356035
-0.00162851
-0.000552663
-5.16207e-05
0.000124377
0.000146876
0.000114101
7.29063e-05
4.04496e-05
1.96368e-05
8.09988e-06
2.52046e-06
2.35097e-07
-4.6577e-07
-5.23444e-07
-3.87545e-07
-2.38568e-07
-1.29569e-07
-6.31223e-08
-2.73857e-08
-1.01682e-08
-2.80465e-09
-1.31824e-10
5.65989e-10
5.64803e-10
3.92817e-10
2.31743e-10
1.22504e-10
5.91163e-11
2.60705e-11
1.03409e-11
3.51134e-12
8.58207e-13
-1.12138e-14
-2.03229e-13
-1.82135e-13
-1.1994e-13
-6.82434e-14
-3.5243e-14
-1.68328e-14
-7.47219e-15
-3.06511e-15
-1.138e-15
-3.6158e-16
-8.05388e-17
4.71058e-18
2.10575e-17
1.76315e-17
1.11836e-17
6.20476e-18
3.15334e-18
1.49608e-18
6.6741e-19
2.79809e-19
1.09304e-19
3.89115e-20
1.19332e-20
2.59244e-21
-1.26455e-22
-6.23612e-22
-5.1435e-22
-3.21426e-22
-1.76288e-22
-8.8977e-23
-4.21727e-23
-1.89413e-23
-8.08326e-24
-3.26958e-24
-1.24242e-24
-4.36334e-25
-9.95116e-26
0.999997
1.00001
1.00003
0.999957
0.999824
0.99997
1.00063
1.00109
0.999751
0.99608
0.99302
0.996631
1.01144
1.03411
1.05077
1.04109
0.987506
0.88392
0.738931
0.572299
0.40735
0.263469
0.151717
0.0743353
0.0270299
0.00226835
-0.00785409
-0.00986056
-0.00826001
-0.00568385
-0.00337767
-0.00173991
-0.000747869
-0.000229276
-2.5841e-06
6.96103e-05
7.3384e-05
5.47536e-05
3.42923e-05
1.88689e-05
9.18719e-06
3.86768e-06
1.28816e-06
2.09947e-07
-1.44137e-07
-1.98181e-07
-1.55371e-07
-9.90232e-08
-5.54817e-08
-2.80153e-08
-1.27721e-08
-5.15282e-09
-1.72141e-09
-3.6053e-10
8.00555e-11
1.62425e-10
1.32897e-10
8.53989e-11
4.80889e-11
2.46038e-11
1.15749e-11
4.99604e-12
1.94218e-12
6.44472e-13
1.50694e-13
-7.07218e-15
-3.99438e-14
-3.46201e-14
-2.25074e-14
-1.27279e-14
-6.55929e-15
-3.13727e-15
-1.40023e-15
-5.80805e-16
-2.20253e-16
-7.31673e-17
-1.86343e-17
-1.19808e-18
2.82128e-18
2.73813e-18
1.82979e-18
1.04642e-18
5.44213e-19
2.63725e-19
1.2031e-19
5.17924e-20
2.09502e-20
7.85688e-21
2.64591e-21
7.33329e-22
1.11052e-22
-4.87381e-23
-6.39717e-23
-4.56419e-23
-2.68254e-23
-1.41923e-23
-6.98762e-24
-3.25021e-24
-1.43849e-24
-5.50403e-25
0.999997
1.00001
1.00002
0.999972
0.999862
0.999931
1.0004
1.0009
1.0003
0.997784
0.994642
0.994987
1.00349
1.02068
1.03903
1.04335
1.01631
0.946215
0.832654
0.687015
0.528158
0.375927
0.245578
0.145031
0.0750679
0.031449
0.00758828
-0.00323415
-0.00655066
-0.00624215
-0.00465324
-0.00297605
-0.00167358
-0.000821718
-0.000335551
-9.38891e-05
6.34217e-06
3.55431e-05
3.49246e-05
2.53558e-05
1.56759e-05
8.59492e-06
4.2116e-06
1.81269e-06
6.42129e-07
1.41854e-07
-3.30653e-08
-7.00885e-08
-5.96303e-08
-3.96423e-08
-2.29608e-08
-1.19967e-08
-5.70675e-09
-2.45161e-09
-9.1971e-10
-2.70601e-10
-3.21996e-11
3.47325e-11
4.01468e-11
2.92192e-11
1.77412e-11
9.63752e-12
4.80415e-12
2.21439e-12
9.39571e-13
3.59628e-13
1.1737e-13
2.66474e-14
-1.81393e-15
-7.51146e-15
-6.38876e-15
-4.12286e-15
-2.32429e-15
-1.19769e-15
-5.74458e-16
-2.58017e-16
-1.08249e-16
-4.18844e-17
-1.44678e-17
-4.07119e-18
-5.92585e-19
3.195e-19
4.03631e-19
2.89476e-19
1.71714e-19
9.16223e-20
4.53839e-20
2.11585e-20
9.33181e-21
3.88947e-21
1.52012e-21
5.46599e-22
1.72752e-22
4.16515e-23
2.0202e-24
-6.42397e-24
-5.93395e-24
-3.85862e-24
-2.16133e-24
-1.09784e-24
0.999998
1.00001
1.00002
0.999975
0.999893
0.999949
1.00028
1.00065
1.00032
0.998715
0.996396
0.995798
1.00038
1.01187
1.02684
1.03534
1.02323
0.977621
0.892593
0.772126
0.628891
0.479917
0.341419
0.224908
0.135662
0.0733368
0.0338405
0.0114518
0.000499669
-0.00366372
-0.00433577
-0.00356541
-0.00245379
-0.00148541
-0.000800059
-0.000378202
-0.000148315
-3.85166e-05
5.14886e-06
1.69549e-05
1.59514e-05
1.13788e-05
6.98247e-06
3.82886e-06
1.89264e-06
8.33172e-07
3.11677e-07
8.36602e-08
-6.3566e-10
-2.25816e-08
-2.17868e-08
-1.5282e-08
-9.18409e-09
-4.96397e-09
-2.4531e-09
-1.10849e-09
-4.50478e-10
-1.56562e-10
-3.89953e-11
7.67734e-13
9.93834e-12
9.07359e-12
6.10736e-12
3.55358e-12
1.87646e-12
9.16044e-13
4.15385e-13
1.73916e-13
6.58217e-14
2.12619e-14
4.76535e-15
-3.52317e-16
-1.35824e-15
-1.14752e-15
-7.38562e-16
-4.16196e-16
-2.14815e-16
-1.03444e-16
-4.67882e-17
-1.98558e-17
-7.82987e-18
-2.79901e-18
-8.50661e-19
-1.72644e-19
2.28857e-20
5.55166e-20
4.40945e-20
2.73828e-20
1.50456e-20
7.62837e-21
3.63435e-21
1.63981e-21
7.01835e-22
2.83828e-22
1.07223e-22
3.68639e-23
1.07974e-23
2.09891e-24
-2.83262e-25
-8.40884e-25
0.999998
1.00001
1.00002
0.999973
0.999909
0.999982
1.00025
1.00046
1.00013
0.999017
0.997589
0.997283
1.00016
1.00756
1.01793
1.0252
1.01912
0.988407
0.925091
0.828162
0.704461
0.566634
0.429284
0.305109
0.202376
0.124234
0.0695277
0.034391
0.0138908
0.00327614
-0.00132236
-0.00267277
-0.00253468
-0.00189588
-0.00123063
-0.000714027
-0.000371821
-0.000170702
-6.499e-05
-1.60415e-05
2.82073e-06
7.65272e-06
7.02684e-06
4.96314e-06
3.0364e-06
1.66998e-06
8.34067e-07
3.75399e-07
1.47276e-07
4.52615e-08
5.65967e-09
-6.2344e-09
-7.49918e-09
-5.65471e-09
-3.54783e-09
-1.98628e-09
-1.01733e-09
-4.79886e-10
-2.07135e-10
-7.97769e-11
-2.54973e-11
-4.97709e-12
1.34833e-12
2.41544e-12
1.9277e-12
1.2268e-12
6.90649e-13
3.56533e-13
1.71152e-13
7.66128e-14
3.17572e-14
1.19303e-14
3.83728e-15
8.6314e-16
-5.54953e-17
-2.3682e-16
-2.0097e-16
-1.29569e-16
-7.31629e-17
-3.78832e-17
-1.83337e-17
-8.35526e-18
-3.58644e-18
-1.43971e-18
-5.30475e-19
-1.71379e-19
-4.20692e-20
-1.94641e-21
6.86715e-21
6.41971e-21
4.2335e-21
2.40823e-21
1.25258e-21
6.1017e-22
2.81429e-22
1.23402e-22
5.13895e-23
2.01907e-23
7.39715e-24
1.87137e-24
0.999998
1.00001
1.00001
0.999968
0.999914
1.00001
1.00027
1.00037
0.999932
0.998981
0.998166
0.998533
1.00111
1.00629
1.01288
1.01693
1.0115
0.987944
0.938675
0.860302
0.755421
0.632278
0.502507
0.378022
0.268316
0.17896
0.111464
0.0641415
0.0334132
0.0150608
0.00513359
0.000438319
-0.00132229
-0.00163552
-0.00136576
-0.000955487
-0.000593213
-0.000332984
-0.000168922
-7.58989e-05
-2.83551e-05
-6.8452e-06
1.27033e-06
3.29141e-06
2.99534e-06
2.10848e-06
1.29089e-06
7.13726e-07
3.60563e-07
1.65787e-07
6.77916e-08
2.30056e-08
4.86346e-09
-1.18377e-09
-2.38223e-09
-1.9967e-09
-1.32108e-09
-7.68582e-10
-4.07747e-10
-1.9987e-10
-9.05696e-11
-3.74868e-11
-1.3689e-11
-3.97647e-12
-5.07702e-13
4.50956e-13
5.34883e-13
3.90972e-13
2.38574e-13
1.30854e-13
6.63324e-14
3.14175e-14
1.39231e-14
5.73041e-15
2.14426e-15
6.90483e-16
1.58183e-16
-6.54002e-18
-3.98555e-17
-3.43585e-17
-2.22842e-17
-1.26377e-17
-6.57413e-18
-3.20035e-18
-1.4702e-18
-6.38238e-19
-2.60533e-19
-9.86073e-20
-3.34783e-20
-9.31227e-21
-1.36621e-21
6.90709e-22
8.81438e-22
6.32026e-22
3.75199e-22
2.00864e-22
1.00168e-22
4.72227e-23
2.12018e-23
8.20258e-24
0.999998
1.00001
1.00001
0.999966
0.999913
1.00002
1.00029
1.00035
0.999799
0.998834