/*--------------------------------*- C++ -*----------------------------------*\
  =========                 |
  \\      /  F ield         | OpenFOAM: The Open Source CFD Toolbox
   \\    /   O peration     | Website:  https://openfoam.org
    \\  /    A nd           | Version:  7
     \\/     M anipulation  |
\*---------------------------------------------------------------------------*/
FoamFile
{
    version     2.0;
    format      ascii;
    class       volScalarField;
    location    "0.35";
    object      T;
}
// * * * * * * * * * * * * * * * * * * * * * * * * * * * * * * * * * * * * * //

dimensions      [0 0 0 1 0 0 0];

internalField   nonuniform List<scalar> 
2500
(
0.5
0.0669146
-0.0353169
-0.0277115
-0.00789977
0.00112925
0.00220704
0.000963782
3.89485e-05
-0.00020592
-0.000129818
-2.49894e-05
1.88815e-05
1.85248e-05
6.53148e-06
-1.12291e-06
-2.83598e-06
-1.8049e-06
-5.56228e-07
7.89067e-08
2.12528e-07
1.44921e-07
5.97006e-08
1.18602e-08
-4.22057e-09
-5.59956e-09
-3.24106e-09
-1.2635e-09
-3.0448e-10
8.67297e-12
5.77713e-11
3.83524e-11
1.69758e-11
5.5621e-12
1.18384e-12
-2.53154e-14
-1.86097e-13
-1.19037e-13
-5.24831e-14
-1.82106e-14
-4.88651e-15
-7.92447e-16
1.14842e-16
1.73578e-16
9.67053e-17
4.03297e-17
1.39006e-17
3.97281e-18
8.67732e-19
2.52341e-22
0.933085
0.5
0.14482
-0.0139076
-0.041172
-0.0230289
-0.00507391
0.00215774
0.00250759
0.0010099
-2.18287e-06
-0.000257617
-0.000158978
-2.99299e-05
2.618e-05
2.7164e-05
1.17778e-05
6.37302e-07
-3.00249e-06
-2.52913e-06
-1.1612e-06
-2.49178e-07
9.28892e-08
1.28589e-07
7.59034e-08
2.90671e-08
5.94989e-09
-1.30909e-09
-2.03128e-09
-1.19701e-09
-4.85519e-10
-1.36583e-10
-1.54694e-11
1.07723e-11
9.58162e-12
4.80657e-12
1.80802e-12
5.15228e-13
8.85181e-14
-1.19314e-14
-1.95073e-14
-1.10578e-14
-4.61554e-15
-1.56171e-15
-4.22328e-16
-7.66899e-17
2.7017e-18
1.09531e-17
6.61228e-18
2.63571e-18
1.03532
0.85518
0.5
0.182448
0.00830387
-0.0419276
-0.0324407
-0.0120097
3.75455e-05
0.0030758
0.0020145
0.000512502
-0.000204795
-0.000277754
-0.000129858
-8.82968e-06
3.30362e-05
2.78485e-05
1.18671e-05
1.36035e-06
-2.16937e-06
-2.04392e-06
-1.04242e-06
-3.15771e-07
-5.13316e-09
6.3331e-08
4.74514e-08
2.20144e-08
6.87961e-09
9.10131e-10
-5.53699e-10
-5.35047e-10
-2.77091e-10
-1.04275e-10
-2.79952e-11
-3.22745e-12
1.91889e-12
1.72679e-12
8.6851e-13
3.32699e-13
1.00349e-13
2.12686e-14
7.34907e-16
-2.24157e-15
-1.52971e-15
-6.99237e-16
-2.57883e-16
-7.90617e-17
-1.92833e-17
-1.20248e-18
1.02771
1.01391
0.817551
0.5
0.20639
0.0268062
-0.0388697
-0.0384427
-0.0184201
-0.00302057
0.00285318
0.00283641
0.00118888
2.67739e-05
-0.000328803
-0.000248718
-8.76889e-05
7.31647e-06
3.16062e-05
2.28569e-05
9.38944e-06
1.40292e-06
-1.23889e-06
-1.27982e-06
-6.89342e-07
-2.40034e-07
-3.55593e-08
2.12151e-08
2.19127e-08
1.1703e-08
4.38774e-09
1.07456e-09
2.3078e-11
-1.54495e-10
-1.08119e-10
-4.94604e-11
-1.7176e-11
-4.31202e-12
-4.36387e-13
3.06417e-13
2.59065e-13
1.27833e-13
4.89757e-14
1.51623e-14
3.53903e-15
3.70824e-16
-2.00438e-16
-1.72994e-16
-8.58692e-17
-2.98327e-17
1.0079
1.04117
0.991697
0.793612
0.5
0.223364
0.0421514
-0.0343054
-0.0421144
-0.0239566
-0.00644592
0.00203899
0.00341057
0.00194912
0.000445275
-0.000251232
-0.000330589
-0.000184894
-4.97615e-05
1.29249e-05
2.38514e-05
1.54339e-05
6.10956e-06
1.05092e-06
-5.80753e-07
-6.61986e-07
-3.70033e-07
-1.39482e-07
-3.04407e-08
3.74517e-09
7.99425e-09
4.94165e-09
2.09972e-09
6.49251e-10
1.15102e-10
-2.0614e-11
-3.08255e-11
-1.75582e-11
-7.27138e-12
-2.3569e-12
-5.55782e-13
-4.75008e-14
4.22837e-14
3.35422e-14
1.6239e-14
6.21282e-15
1.96045e-15
4.88421e-16
7.35175e-17
-2.15063e-17
0.998871
1.02303
1.04193
0.973195
0.776632
0.499995
0.236311
0.0551722
-0.029126
-0.0442057
-0.0286723
-0.010022
0.000724333
0.00366792
0.00269937
0.00102423
-5.44838e-06
-0.000314212
-0.00025311
-0.000115259
-2.34564e-05
1.14428e-05
1.48429e-05
8.79548e-06
3.36284e-06
6.31393e-07
-2.27309e-07
-2.92417e-07
-1.68678e-07
-6.71601e-08
-1.77057e-08
-9.14078e-10
2.3036e-09
1.73401e-09
8.2381e-10
2.93958e-10
7.52355e-11
7.53257e-12
-5.71896e-12
-4.83903e-12
-2.40217e-12
-9.22057e-13
-2.83073e-13
-6.35197e-14
-4.66871e-15
5.06257e-15
3.84399e-15
1.83802e-15
7.06562e-16
1.87197e-16
0.997793
1.00507
1.03244
1.03887
0.957842
0.763689
0.500009
0.246698
0.0664184
-0.0238192
-0.0453151
-0.0328061
-0.0137676
-0.00114313
0.0034541
0.00326288
0.00165004
0.000379047
-0.000174482
-0.000251861
-0.000157423
-6.07451e-05
-8.86941e-06
7.55358e-06
7.8466e-06
4.31945e-06
1.60141e-06
3.20439e-07
-7.3764e-08
-1.12481e-07
-6.70471e-08
-2.7901e-08
-8.28648e-09
-1.20909e-09
4.78475e-10
5.12498e-10
2.75183e-10
1.09869e-10
3.39038e-11
7.05724e-12
-2.36965e-14
-9.76141e-13
-6.37134e-13
-2.87502e-13
-1.04286e-13
-3.07588e-14
-6.67686e-15
-4.54325e-16
5.32155e-16
3.96861e-16
0.999036
0.997844
1.01201
1.03843
1.0343
0.944855
0.75334
0.499993
0.255244
0.076232
-0.0185648
-0.0456946
-0.0364195
-0.01764
-0.00359197
0.00261383
0.00342423
0.00213835
0.000795209
5.33101e-05
-0.000174777
-0.00015667
-8.1997e-05
-2.73013e-05
-2.48692e-06
4.06862e-06
3.5954e-06
1.86067e-06
6.73146e-07
1.42411e-07
-1.87646e-08
-3.81053e-08
-2.365e-08
-1.02525e-08
-3.32205e-09
-6.87586e-10
3.51635e-11
1.25745e-10
7.9507e-11
3.53008e-11
1.23877e-11
3.35803e-12
5.40738e-13
-9.16899e-14
-1.30876e-13
-7.34211e-14
-3.09645e-14
-1.07786e-14
-3.10846e-15
-4.43664e-16
0.999961
0.997494
0.999958
1.01841
1.04213
1.02918
0.933624
0.744657
0.499846
0.262515
0.0852381
-0.0129133
-0.0449624
-0.0391063
-0.0212736
-0.00641296
0.00116113
0.00306041
0.00232486
0.001109
0.000291066
-5.22723e-05
-0.000116077
-8.0319e-05
-3.65042e-05
-1.05939e-05
-3.83205e-07
1.85568e-06
1.4508e-06
7.14451e-07
2.54366e-07
5.69091e-08
-2.88835e-09
-1.14262e-08
-7.4943e-09
-3.38881e-09
-1.17838e-09
-2.96022e-10
-2.78307e-11
2.37869e-11
1.98554e-11
9.93407e-12
3.88145e-12
1.2293e-12
2.94815e-13
3.26849e-14
-1.66484e-14
-1.49887e-14
-7.64191e-15
-2.70471e-15
1.00021
0.998989
0.996919
1.00302
1.02398
1.04424
1.02382
0.923632
0.737149
0.499813
0.269358
0.0944028
-0.00602186
-0.0423592
-0.0401254
-0.0239942
-0.00910646
-0.000637244
0.00223561
0.00215475
0.00122933
0.00046194
6.93786e-05
-5.57291e-05
-6.04643e-05
-3.50151e-05
-1.41577e-05
-3.61619e-06
6.72809e-08
7.33057e-07
5.23078e-07
2.48248e-07
8.78096e-08
2.08323e-08
3.8542e-10
-3.02573e-09
-2.15093e-09
-1.01949e-09
-3.7717e-10
-1.07841e-10
-1.9001e-11
2.34699e-12
4.18231e-12
2.46069e-12
1.06926e-12
3.80365e-13
1.10639e-13
2.35124e-14
1.32187e-15
-2.49387e-15
1.00013
0.999998
0.99798
0.997168
1.00648
1.02864
1.04518
1.01846
0.914836
0.730816
0.500103
0.276073
0.10401
0.00243248
-0.0374129
-0.0388412
-0.0251081
-0.0110648
-0.00235594
0.00117712
0.0017031
0.00114617
0.000526709
0.000153612
1.20905e-06
-3.33031e-05
-2.62303e-05
-1.33034e-05
-4.88605e-06
-1.114e-06
7.79922e-08
2.55493e-07
1.70857e-07
7.91258e-08
2.80598e-08
7.07151e-09
5.51795e-10
-6.96946e-10
-5.61456e-10
-2.81398e-10
-1.10347e-10
-3.47589e-11
-8.01591e-12
-6.02791e-13
6.80043e-13
5.31122e-13
2.6149e-13
1.03177e-13
3.42849e-14
7.05775e-15
1.00003
1.00025
0.999479
0.997215
0.998033
1.00989
1.03241
1.04559
1.01382
0.907278
0.724723
0.499085
0.280921
0.112699
0.0116604
-0.0303847
-0.035128
-0.0242617
-0.0118565
-0.00360672
0.000161262
0.00112346
0.000919108
0.00049194
0.00018698
3.97026e-05
-8.93587e-06
-1.51653e-05
-9.83134e-06
-4.50874e-06
-1.53447e-06
-3.18986e-07
3.55799e-08
7.98509e-08
5.11969e-08
2.34015e-08
8.38433e-09
2.24353e-09
2.88924e-10
-1.33229e-10
-1.3318e-10
-7.16099e-11
-2.9767e-11
-1.01464e-11
-2.74588e-12
-4.69282e-13
5.22175e-14
9.60328e-14
5.67158e-14
2.23799e-14
0.999984
1.00015
1.00019
0.998893
0.996725
0.999063
1.01301
1.03609
1.04678
1.0101
0.898817
0.714747
0.492127
0.280078
0.117887
0.020085
-0.0222108
-0.0294919
-0.0216249
-0.0114074
-0.00419245
-0.000603667
0.000570862
0.000635959
0.000393895
0.000177045
5.61298e-05
7.20417e-06
-5.71019e-06
-5.76421e-06
-3.27616e-06
-1.3928e-06
-4.47767e-07
-8.73684e-08
1.17815e-08
2.26829e-08
1.42219e-08
6.48052e-09
2.36002e-09
6.68915e-10
1.14832e-10
-1.78102e-11
-2.84619e-11
-1.68284e-11
-7.44568e-12
-2.72015e-12
-8.2301e-13
-1.88698e-13
-1.80059e-14
1.57266e-14
0.999985
1.00001
1.00025
1.00007
0.99827
0.996115
1.00002
1.0168
1.04143
1.0491
1.00412
0.883025
0.693492
0.473172
0.269633
0.117279
0.0261799
-0.0141056
-0.0228811
-0.0178025
-0.00998218
-0.00413988
-0.00103384
0.000146719
0.000372382
0.00027505
0.000141783
5.51674e-05
1.45204e-05
4.12982e-07
-2.44187e-06
-1.91776e-06
-9.93414e-07
-3.99431e-07
-1.2352e-07
-2.34122e-08
3.12792e-09
5.9164e-09
3.69275e-09
1.6921e-09
6.2919e-10
1.88227e-10
3.91115e-11
1.46302e-13
-5.34825e-12
-3.64304e-12
-1.732e-12
-6.75581e-13
-2.2388e-13
-4.58505e-14
0.999998
0.999957
1.00009
1.00043
0.999853
0.997159
0.995167
1.00208
1.02344
1.04892
1.04858
0.98765
0.850432
0.653573
0.438161
0.247963
0.110139
0.0291259
-0.0071253
-0.0163316
-0.0135674
-0.00802393
-0.00362996
-0.00115811
-0.000115894
0.000171269
0.000167303
9.90869e-05
4.45771e-05
1.53119e-05
3.28456e-06
-3.42779e-07
-8.5256e-07
-5.75849e-07
-2.79157e-07
-1.07907e-07
-3.26281e-08
-6.21699e-09
6.69149e-10
1.42638e-09
9.01673e-10
4.18715e-10
1.59519e-10
5.01717e-11
1.19562e-11
1.19563e-12
-8.25479e-13
-7.19983e-13
-3.75673e-13
-1.37714e-13
1.00001
0.999957
0.999956
1.00033
1.0006
0.998957
0.995274
0.995249
1.00788
1.0337
1.05411
1.03563
0.949767
0.793167
0.591907
0.387544
0.216669
0.0975207
0.0289732
-0.0018927
-0.0106489
-0.00959229
-0.00597067
-0.00289298
-0.0010686
-0.000235882
4.27951e-05
8.63598e-05
6.09974e-05
3.12094e-05
1.2619e-05
3.88045e-06
6.54608e-07
-1.96716e-07
-2.60549e-07
-1.59413e-07
-7.37219e-08
-2.77631e-08
-8.32419e-09
-1.64027e-09
1.04031e-10
3.18724e-10
2.07881e-10
9.85573e-11
3.85769e-11
1.27094e-11
3.35956e-12
5.51965e-13
-7.83068e-14
-1.32694e-13
1.00001
0.999975
0.999909
1.00015
1.0007
1.0001
0.996948
0.994041
0.999417
1.01861
1.04292
1.04639
0.998212
0.882444
0.70959
0.511728
0.326195
0.179727
0.0816105
0.026413
0.0014583
-0.00625365
-0.006297
-0.00413665
-0.00212583
-0.000869209
-0.000256704
-2.4131e-05
3.44397e-05
3.27763e-05
1.93001e-05
8.87988e-06
3.29461e-06
9.17497e-07
1.14692e-07
-7.1519e-08
-7.22142e-08
-4.13092e-08
-1.8489e-08
-6.85657e-09
-2.06163e-09
-4.28148e-10
4.44594e-12
6.5868e-11
4.535e-11
2.21216e-11
8.91949e-12
3.06841e-12
8.84635e-13
1.22467e-13
1.00001
0.999988
0.999913
1.00004
1.00055
1.00049
0.99835
0.99519
0.996789
1.00931
1.02968
1.03981
1.0127
0.927989
0.78525
0.605593
0.421246
0.261242
0.141796
0.0648112
0.0224095
0.00317057
-0.00320058
-0.00383195
-0.00267893
-0.00145396
-0.000642695
-0.000223431
-4.88417e-05
6.14785e-06
1.47469e-05
1.05479e-05
5.5056e-06
2.33693e-06
8.08611e-07
2.06274e-07
1.73622e-08
-2.13583e-08
-1.85432e-08
-1.0131e-08
-4.43753e-09
-1.63435e-09
-4.96992e-10
-1.09823e-10
-4.76808e-12
1.24688e-11
9.36227e-12
4.74111e-12
1.98194e-12
5.9529e-13
1.00001
0.999993
0.999931
1.00001
1.00039
1.00046
0.999028
0.99658
0.997114
1.00553
1.02059
1.02942
1.01042
0.944167
0.825157
0.666066
0.492161
0.330325
0.199495
0.106754
0.0490637
0.0178836
0.0036808
-0.00129935
-0.00214821
-0.0016246
-0.000931427
-0.00043936
-0.000170373
-4.98038e-05
-6.24023e-06
4.76333e-06
4.98521e-06
3.03236e-06
1.45173e-06
5.7895e-07
1.89413e-07
4.4849e-08
2.16828e-09
-5.64317e-09
-4.47319e-09
-2.37043e-09
-1.02497e-09
-3.77403e-10
-1.16749e-10
-2.75147e-11
-2.56152e-12
2.10899e-12
1.82791e-12
8.95593e-13
1.00001
0.999993
0.999944
1.00002
1.00031
1.00032
0.999185
0.997438
0.998206
1.00497
1.01622
1.02147
1.00326
0.945202
0.841022
0.698774
0.537858
0.381211
0.247318
0.145729
0.0769884
0.0355598
0.0135304
0.003452
-0.000254867
-0.00109246
-0.000921784
-0.000561034
-0.000280584
-0.0001181
-4.04992e-05
-9.60051e-06
9.95841e-08
1.88907e-06
1.46733e-06
8.02173e-07
3.60069e-07
1.36821e-07
4.28522e-08
9.57083e-09
1.98464e-10
-1.36316e-09
-1.02337e-09
-5.32229e-10
-2.28767e-10
-8.4641e-11
-2.67359e-11
-6.7044e-12
-9.25166e-13
4.08646e-13
1
0.999992
0.999949
1.00003
1.00029
1.00022
0.999123
0.997772
0.999066
1.00559
1.01496
1.01717
0.997034
0.941002
0.844088
0.712842
0.563057
0.413974
0.28212
0.177374
0.102203
0.0533867
0.024772
0.00976494
0.00286737
0.00022683
-0.000485311
-0.000486933
-0.00031822
-0.000168473
-7.58477e-05
-2.89252e-05
-8.76745e-06
-1.54688e-06
4.00132e-07
5.95843e-07
3.92695e-07
1.99031e-07
8.5075e-08
3.11538e-08
9.4486e-09
2.02879e-09
9.37893e-12
-3.06281e-10
-2.23496e-10
-1.15163e-10
-4.94836e-11
-1.84663e-11
-5.99585e-12
-1.18839e-12
1
0.999991
0.99995
1.00004
1.0003
1.00017
0.99903
0.997817
0.9995
1.00628
1.01508
1.01555
0.993308
0.936632
0.842186
0.716741
0.574537
0.432318
0.304496
0.200143
0.12229
0.0690651
0.0357224
0.0166454
0.00675622
0.00218985
0.000382193
-0.000168203
-0.000236557
-0.000169753
-9.54519e-05
-4.56269e-05
-1.88451e-05
-6.57173e-06
-1.74599e-06
-1.81454e-07
1.71029e-07
1.65144e-07
9.7912e-08
4.69311e-08
1.93276e-08
6.88571e-09
2.04388e-09
4.30693e-10
8.68496e-13
-6.46129e-11
-4.68013e-11
-2.40855e-11
-1.0432e-11
-3.33237e-12
1.00001
0.99999
0.999949
1.00004
1.00031
1.00016
0.998969
0.997767
0.999637
1.00672
1.01552
1.01528
0.991653
0.933748
0.839461
0.716354
0.578389
0.441047
0.317176
0.214757
0.136592
0.0813382
0.0451227
0.0231382
0.010822
0.00450023
0.00156831
0.000374768
-2.18995e-05
-0.000102714
-8.47123e-05
-5.10812e-05
-2.58734e-05
-1.14136e-05
-4.38007e-06
-1.40455e-06
-3.21507e-07
-3.15912e-09
5.36096e-08
4.19375e-08
2.30982e-08
1.06166e-08
4.25119e-09
1.48534e-09
4.35671e-10
9.19143e-11
1.1612e-12
-1.28523e-11
-9.44673e-12
-4.45164e-12
1.00001
0.99999
0.999948
1.00004
1.00031
1.00016
0.998944
0.997715
0.999641
1.0069
1.01587
1.01547
0.991172
0.93231
0.837451
0.714877
0.578821
0.444348
0.323419
0.22312
0.145753
0.0899916
0.0523636
0.0285894
0.014549
0.00682657
0.00289616
0.00106615
0.000303673
3.31479e-05
-3.69225e-05
-3.90517e-05
-2.57671e-05
-1.38743e-05
-6.49372e-06
-2.68238e-06
-9.65362e-07
-2.85637e-07
-5.47388e-08
6.71313e-09
1.44845e-08
9.97979e-09
5.21027e-09
2.32004e-09
9.09959e-10
3.13923e-10
9.17507e-11
1.9711e-11
6.92638e-13
-2.67031e-12
1.00001
0.99999
0.999948
1.00004
1.00031
1.00016
0.998938
0.997685
0.999612
1.00695
1.01606
1.0157
0.991173
0.931778
0.836346
0.713613
0.578171
0.445097
0.32598
0.227349
0.151038
0.0955229
0.0574229
0.0327263
0.0176146
0.00890301
0.0041883
0.00180643
0.000693716
0.000221106
4.48344e-05
-7.89825e-06
-1.61596e-05
-1.21711e-05
-7.03681e-06
-3.49046e-06
-1.53448e-06
-5.99879e-07
-2.03964e-07
-5.58223e-08
-8.55686e-09
2.79585e-09
3.56403e-09
2.25653e-09
1.13224e-09
4.92292e-10
1.90259e-10
6.51695e-11
1.92073e-11
2.88218e-12
1.00001
0.99999
0.999948
1.00004
1.00032
1.00017
0.99894
0.997673
0.999588
1.00694
1.01613
1.01584
0.991289
0.93167
0.835872
0.712848
0.577458
0.444921
0.326746
0.229191
0.153769
0.0987348
0.0606497
0.0355925
0.0199093
0.010579
0.0053138
0.00250477
0.00109503
0.000434677
0.000149734
3.92488e-05
2.87282e-06
-5.56243e-06
-5.30313e-06
-3.36423e-06
-1.77648e-06
-8.27291e-07
-3.45587e-07
-1.28935e-07
-4.16839e-08
-1.05791e-08
-1.20492e-09
8.19273e-10
8.19988e-10
4.89302e-10
2.3834e-10
1.0181e-10
3.91223e-11
1.09242e-11
1.00001
0.99999
0.999948
1.00004
1.00031
1.00017
0.998942
0.997671
0.999575
1.00693
1.01614
1.01591
0.991386
0.931703
0.835726
0.712482
0.576978
0.44457
0.326799
0.229833
0.155012
0.100424
0.0625335
0.0374165
0.0214866
0.0118176
0.00620651
0.00309952
0.00146301
0.000646675
0.000263517
9.60334e-05
2.9078e-05
5.48798e-06
-1.1519e-06
-2.05913e-06
-1.50259e-06
-8.55132e-07
-4.22178e-07
-1.86966e-07
-7.48706e-08
-2.68456e-08
-8.30279e-09
-1.9613e-09
-1.45769e-10
2.0574e-10
1.79073e-10
1.024e-10
4.89693e-11
1.78791e-11
1.00001
0.99999
0.999948
1.00004
1.00031
1.00017
0.998943
0.997671
0.99957
1.00692
1.01614
1.01593
0.991439
0.931755
0.835712
0.712345
0.576726
0.444296
0.326657
0.229965
0.155491
0.101221
0.063539
0.0384859
0.0224881
0.0126628
0.00685848
0.00356368
0.00176998
0.000836087
0.000372858
0.000155143
5.89766e-05
1.95884e-05
5.00074e-06
3.86248e-07
-6.4691e-07
-6.14513e-07
-3.87157e-07
-2.04071e-07
-9.56205e-08
-4.06514e-08
-1.57165e-08
-5.44936e-09
-1.62223e-09
-3.58824e-10
-1.30718e-11
4.70161e-11
3.75706e-11
1.90696e-11
1.00001
0.99999
0.999948
1.00004
1.00031
1.00017
0.998944
0.997672
0.999569
1.00692
1.01613
1.01594
0.991462
0.93179
0.835731
0.712311
0.576618
0.444138
0.326517
0.22993
0.155627
0.101549
0.0640265
0.0390637
0.0230774
0.0131981
0.00730026
0.00389895
0.00200598
0.000991092
0.000468249
0.000210298
8.89769e-05
3.49372e-05
1.23714e-05
3.69191e-06
7.2403e-07
-9.91506e-08
-2.19302e-07
-1.6271e-07
-9.31329e-08
-4.6341e-08
-2.08263e-08
-8.56179e-09
-3.21483e-09
-1.08398e-09
-3.12598e-10
-6.53374e-11
-2.72438e-13
1.08087e-11
1.00001
0.99999
0.999948
1.00004
1.00031
1.00017
0.998944
0.997673
0.999569
1.00691
1.01613
1.01594
0.991468
0.931807
0.83575
0.712312
0.576582
0.444064
0.326427
0.229867
0.155638
0.10166
0.0642378
0.0393502
0.023399
0.013514
0.00757943
0.00412464
0.00217469
0.00110861
0.00054494
0.000257372
0.000116228
4.9838e-05
2.00697e-05
7.44546e-06
2.44579e-06
6.39095e-07
7.2966e-08
-5.85125e-08
-6.16149e-08
-3.97631e-08
-2.12496e-08
-1.01079e-08
-4.3913e-09
-1.75603e-09
-6.43687e-10
-2.12152e-10
-5.998e-11
-7.59524e-12
1.00001
0.99999
0.999948
1.00004
1.00031
1.00017
0.998944
0.997673
0.99957
1.00691
1.01612
1.01593
0.991469
0.931814
0.835762
0.71232
0.576576
0.444035
0.32638
0.22982
0.155615
0.101683
0.0643167
0.0394793
0.0235614
0.0136879
0.00774452
0.00426691
0.00228755
0.00119181
0.000602331
0.0002946
0.000139022
6.30451e-05
2.73236e-05
1.12246e-05
4.31248e-06
1.51157e-06
4.57228e-07
9.9722e-08
-1.59078e-09
-1.94245e-08
-1.55571e-08
-9.15911e-09
-4.64716e-09
-2.13233e-09
-9.0102e-10
-3.52165e-10
-1.27157e-10
-3.28936e-11
1.00001
0.99999
0.999948
1.00004
1.00031
1.00017
0.998944
0.997673
0.99957
1.00691
1.01612
1.01593
0.991468
0.931816
0.835767
0.712326
0.576577
0.444026
0.32636
0.229794
0.155593
0.101679
0.0643395
0.0395311
0.0236369
0.0137771
0.00783604
0.00435119
0.00235853
0.00124714
0.000642595
0.000322122
0.000156773
7.38869e-05
3.36096e-05
1.46904e-05
6.13119e-06
2.41994e-06
8.88574e-07
2.93937e-07
8.09066e-08
1.33311e-08
-3.61165e-09
-5.30501e-09
-3.65393e-09
-2.01436e-09
-9.81393e-10
-4.37281e-10
-1.81352e-10
-5.84636e-11
1.00001
0.99999
0.999948
1.00004
1.00031
1.00017
0.998944
0.997673
0.99957
1.00691
1.01612
1.01593
0.991468
0.931816
0.835769
0.71233
0.57658
0.444025
0.326353
0.229781
0.155579
0.10167
0.0643421
0.0395485
0.0236688
0.0138196
0.00788359
0.00439819
0.00240062
0.00128185
0.00066922
0.000341266
0.000169748
8.22111e-05
3.86812e-05
1.7632e-05
7.7583e-06
3.27915e-06
1.32186e-06
5.02486e-07
1.76556e-07
5.49958e-08
1.3524e-08
1.2786e-09
-1.33858e-09
-1.30175e-09
-8.13293e-10
-4.26629e-10
-2.01989e-10
-7.61338e-11
1.00001
0.99999
0.999948
1.00004
1.00031
1.00017
0.998944
0.997673
0.99957
1.00691
1.01612
1.01593
0.991467
0.931816
0.835769
0.712331
0.576582
0.444026
0.326351
0.229776
0.155572
0.101664
0.0643395
0.0395526
0.0236806
0.0138382
0.00790671
0.00442288
0.00242422
0.00130245
0.000685881
0.000353857
0.000178701
8.82307e-05
4.25235e-05
1.99674e-05
9.11311e-06
4.03062e-06
1.72083e-06
7.05366e-07
2.75351e-07
1.01023e-07
3.39956e-08
9.93798e-09
2.12166e-09
-1.10968e-11
-3.74256e-10
-2.97475e-10
-1.74105e-10
-7.85091e-11
1.00001
0.99999
0.999948
1.00004
1.00031
1.00017
0.998944
0.997673
0.99957
1.00691
1.01612
1.01593
0.991467
0.931816
0.835769
0.712332
0.576583
0.444027
0.326351
0.229774
0.155569
0.10166
0.0643367
0.0395525
0.0236842
0.0138456
0.00791717
0.00443509
0.00243673
0.00131405
0.000695777
0.000361717
0.000184559
9.23527e-05
4.52744e-05
2.17148e-05
1.01727e-05
4.6453e-06
2.06257e-06
8.87667e-07
3.68728e-07
1.46956e-07
5.56846e-08
1.97556e-08
6.37115e-09
1.74018e-09
3.07818e-10
-4.97538e-11
-9.19636e-11
-6.09293e-11
1.00001
0.99999
0.999948
1.00004
1.00031
1.00017
0.998944
0.997673
0.99957
1.00691
1.01612
1.01593
0.991467
0.931816
0.835769
0.712332
0.576583
0.444027
0.326351
0.229774
0.155568
0.101658
0.0643349
0.0395515
0.0236848
0.0138481
0.00792152
0.00444075
0.002443
0.00132025
0.000701367
0.000366386
0.000188207
9.50364e-05
4.71444e-05
2.2954e-05
1.09563e-05
5.11935e-06
2.33754e-06
1.04084e-06
4.50773e-07
1.89249e-07
7.66738e-08
2.97824e-08
1.09784e-08
3.77315e-09
1.16684e-09
2.96135e-10
4.03008e-11
-2.24635e-11
1.00001
0.99999
0.999948
1.00004
1.00031
1.00017
0.998944
0.997673
0.99957
1.00691
1.01612
1.01593
0.991467
0.931816
0.835769
0.712332
0.576583
0.444028
0.326351
0.229774
0.155567
0.101657
0.0643339
0.0395507
0.0236846
0.0138488
0.00792315
0.0044432
0.00244597
0.00132339
0.000704376
0.000369032
0.000190374
9.67032e-05
4.83562e-05
2.37908e-05
1.15071e-05
5.46611e-06
2.54684e-06
1.1622e-06
5.1849e-07
2.25652e-07
9.55446e-08
3.92205e-08
1.55332e-08
5.89331e-09
2.11779e-09
7.06319e-10
2.10686e-10
3.42137e-11
1.00001
0.99999
0.999948
1.00004
1.00031
1.00017
0.998944
0.997673
0.99957
1.00691
1.01612
1.01593
0.991467
0.931816
0.835769
0.712332
0.576583
0.444028
0.326351
0.229774
0.155567
0.101657
0.0643335
0.0395503
0.0236843
0.0138489
0.00792367
0.00444417
0.00244729
0.00132491
0.000705919
0.000370464
0.000191605
9.76934e-05
4.9107e-05
2.43305e-05
1.18765e-05
5.7078e-06
2.69836e-06
1.25345e-06
5.71381e-07
2.55204e-07
1.11481e-07
4.75227e-08
1.9714e-08
7.92904e-09
3.07614e-09
1.1422e-09
4.02847e-10
1.03819e-10
1.00001
0.99999
0.999948
1.00004
1.00031
1.00017
0.998944
0.997673
0.99957
1.00691
1.01612
1.01593
0.991467
0.931816
0.835769
0.712332
0.576583
0.444028
0.326351
0.229774
0.155567
0.101657
0.0643333
0.03955
0.0236841
0.0138488
0.00792379
0.00444451
0.00244784
0.0013256
0.000706672
0.000371205
0.000192274
9.8257e-05
4.95528e-05
2.4664e-05
1.21138e-05
5.86892e-06
2.80313e-06
1.31887e-06
6.10694e-07
2.77979e-07
1.2422e-07
5.44112e-08
2.33184e-08
9.7552e-09
3.97239e-09
1.56828e-09
5.99861e-10
1.7987e-10
1.00001
0.99999
0.999948
1.00004
1.00031
1.00017
0.998944
0.997673
0.99957
1.00691
1.01612
1.01593
0.991467
0.931816
0.835769
0.712332
0.576583
0.444028
0.326352
0.229774
0.155567
0.101657
0.0643333
0.0395499
0.023684
0.0138487
0.00792379
0.00444461
0.00244805
0.0013259
0.000707023
0.000371572
0.000192623
9.8565e-05
4.9807e-05
2.4862e-05
1.22601e-05
5.97196e-06
2.87257e-06
1.36377e-06
6.38622e-07
2.94724e-07
1.33915e-07
5.98392e-08
2.62605e-08
1.13006e-08
4.75962e-09
1.9573e-09
7.87224e-10
2.56052e-10
1.00001
0.99999
0.999948
1.00004
1.00031
1.00017
0.998944
0.997673
0.99957
1.00691
1.01612
1.01593
0.991467
0.931816
0.835769
0.712332
0.576583
0.444028
0.326352
0.229774
0.155567
0.101657
0.0643332
0.0395499
0.0236839
0.0138487
0.00792377
0.00444463
0.00244812
0.00132602
0.000707177
0.000371745
0.000192798
9.87266e-05
4.99464e-05
2.4975e-05
1.23469e-05
6.03532e-06
2.91679e-06
1.39336e-06
6.57652e-07
3.06518e-07
1.40971e-07
6.39217e-08
2.85477e-08
1.25429e-08
5.41444e-09
2.29243e-09
9.5458e-10
3.27214e-10
1.00001
0.99999
0.999948
1.00004
1.00031
1.00017
0.998944
0.997673
0.99957
1.00691
1.01612
1.01593
0.991467
0.931816
0.835769
0.712332
0.576583
0.444028
0.326352
0.229774
0.155567
0.101657
0.0643332
0.0395499
0.0236839
0.0138486
0.00792375
0.00444463
0.00244814
0.00132606
0.000707241
0.000371823
0.000192882
9.88082e-05
5.002e-05
2.50372e-05
1.23965e-05
6.07288e-06
2.94392e-06
1.41213e-06
6.70124e-07
3.14499e-07
1.459e-07
6.68644e-08
3.0249e-08
1.34966e-08
5.93339e-09
2.56676e-09
1.09618e-09
3.89878e-10
1.00001
0.99999
0.999948
1.00004
1.00031
1.00017
0.998944
0.997673
0.99957
1.00691
1.01612
1.01593
0.991467
0.931816
0.835769
0.712332
0.576583
0.444028
0.326352
0.229774
0.155567
0.101657
0.0643332
0.0395499
0.0236839
0.0138486
0.00792374
0.00444462
0.00244814
0.00132607
0.000707266
0.000371857
0.00019292
9.88478e-05
5.00575e-05
2.50702e-05
1.24238e-05
6.09436e-06
2.95999e-06
1.42362e-06
6.78006e-07
3.19703e-07
1.49214e-07
6.89039e-08
3.14643e-08
1.41986e-08
6.32707e-09
2.78128e-09
1.21037e-09
4.42292e-10
1.00001
0.99999
0.999948
1.00004
1.00031
1.00017
0.998944
0.997673
0.99957
1.00691
1.01612
1.01593
0.991467
0.931816
0.835769
0.712332
0.576583
0.444028
0.326352
0.229774
0.155567
0.101657
0.0643332
0.0395499
0.0236839
0.0138486
0.00792373
0.00444462
0.00244814
0.00132608
0.000707275
0.00037187
0.000192937
9.88663e-05
5.00759e-05
2.50871e-05
1.24384e-05
6.10625e-06
2.96918e-06
1.43041e-06
6.82819e-07
3.2298e-07
1.51364e-07
7.02668e-08
3.23003e-08
1.46958e-08
6.614e-09
2.94221e-09
1.29855e-09
4.84168e-10
1.00001
0.99999
0.999948
1.00004
1.00031
1.00017
0.998944
0.997673
0.99957
1.00691
1.01612
1.01593
0.991467
0.931816
0.835769
0.712332
0.576583
0.444028
0.326352
0.229774
0.155567
0.101657
0.0643332
0.0395499
0.0236839
0.0138486
0.00792373
0.00444462
0.00244814
0.00132608
0.000707278
0.000371875
0.000192944
9.88745e-05
5.00845e-05
2.50955e-05
1.24459e-05
6.11261e-06
2.97428e-06
1.43431e-06
6.85664e-07
3.24976e-07
1.52713e-07
7.11469e-08
3.28557e-08
1.50354e-08
6.81553e-09
3.05841e-09
1.36401e-09
5.16265e-10
1.00001
0.99999
0.999948
1.00004
1.00031
1.00017
0.998944
0.997673
0.99957
1.00691
1.01612
1.01593
0.991467
0.931816
0.835769
0.712332
0.576583
0.444028
0.326352
0.229774
0.155567
0.101657
0.0643332
0.0395499
0.0236839
0.0138486
0.00792373
0.00444461
0.00244814
0.00132608
0.000707278
0.000371877
0.000192947
9.88781e-05
5.00885e-05
2.50995e-05
1.24497e-05
6.11591e-06
2.97702e-06
1.43647e-06
6.87293e-07
3.26154e-07
1.53533e-07
7.16972e-08
3.32127e-08
1.52597e-08
6.95229e-09
3.13939e-09
1.41086e-09
5.39948e-10
1.00001
0.99999
0.999948
1.00004
1.00031
1.00017
0.998944
0.997673
0.99957
1.00691
1.01612
1.01593
0.991467
0.931816
0.835769
0.712332
0.576583
0.444028
0.326352
0.229774
0.155567
0.101657
0.0643332
0.0395499
0.0236839
0.0138486
0.00792373
0.00444461
0.00244814
0.00132608
0.000707278
0.000371877
0.000192948
9.88795e-05
5.00902e-05
2.51013e-05
1.24515e-05
6.11756e-06
2.97845e-06
1.43763e-06
6.88199e-07
3.2683e-07
1.54017e-07
7.20309e-08
3.34352e-08
1.54033e-08
7.04215e-09
3.194e-09
1.44327e-09
5.56818e-10
1.00001
0.99999
0.999948
1.00004
1.00031
1.00017
0.998944
0.997673
0.99957
1.00691
1.01612
1.01593
0.991467
0.931816
0.835769
0.712332
0.576583
0.444028
0.326352
0.229774
0.155567
0.101657
0.0643332
0.0395499
0.0236839
0.0138486
0.00792373
0.00444461
0.00244814
0.00132608
0.000707278
0.000371878
0.000192948
9.88801e-05
5.00909e-05
2.51022e-05
1.24523e-05
6.11837e-06
2.97917e-06
1.43824e-06
6.88689e-07
3.27206e-07
1.54294e-07
7.22275e-08
3.35698e-08
1.54925e-08
7.09943e-09
3.2297e-09
1.465e-09
5.68453e-10
1.00001
0.99999
0.999948
1.00004
1.00031
1.00017
0.998944
0.997673
0.99957
1.00691
1.01612
1.01593
0.991467
0.931816
0.835769
0.712332
0.576583
0.444028
0.326352
0.229774
0.155567
0.101657
0.0643332
0.0395499
0.0236839
0.0138486
0.00792373
0.00444461
0.00244814
0.00132608
0.000707278
0.000371878
0.000192948
9.88803e-05
5.00912e-05
2.51025e-05
1.24527e-05
6.11875e-06
2.97952e-06
1.43855e-06
6.88945e-07
3.27408e-07
1.54448e-07
7.23396e-08
3.36486e-08
1.5546e-08
7.13468e-09
3.25222e-09
1.47904e-09
5.76175e-10
1.00001
0.99999
0.999948
1.00004
1.00031
1.00017
0.998944
0.997673
0.99957
1.00691
1.01612
1.01593
0.991467
0.931816
0.835769
0.712332
0.576583
0.444028
0.326352
0.229774
0.155567
0.101657
0.0643332
0.0395499
0.0236839
0.0138486
0.00792373
0.00444461
0.00244814
0.00132608
0.000707278
0.000371878
0.000192948
9.88803e-05
5.00914e-05
2.51027e-05
1.24529e-05
6.11895e-06
2.97971e-06
1.43872e-06
6.89092e-07
3.27528e-07
1.54542e-07
7.24102e-08
3.36997e-08
1.55817e-08
7.15884e-09
3.26807e-09
1.48919e-09
5.8193e-10
)
;

boundaryField
{
    upperWall
    {
        type            zeroGradient;
    }
    outlet
    {
        type            zeroGradient;
    }
    inlet
    {
        type            fixedValue;
        value           uniform 1;
    }
    lowerWall
    {
        type            fixedValue;
        value           uniform 0;
    }
    frontAndBack
    {
        type            empty;
    }
}


// ************************************************************************* //
