/*--------------------------------*- C++ -*----------------------------------*\
  =========                 |
  \\      /  F ield         | OpenFOAM: The Open Source CFD Toolbox
   \\    /   O peration     | Website:  https://openfoam.org
    \\  /    A nd           | Version:  7
     \\/     M anipulation  |
\*---------------------------------------------------------------------------*/
FoamFile
{
    version     2.0;
    format      ascii;
    class       volScalarField;
    location    "0.7";
    object      T;
}
// * * * * * * * * * * * * * * * * * * * * * * * * * * * * * * * * * * * * * //

dimensions      [0 0 0 1 0 0 0];

internalField   nonuniform List<scalar> 
23686
(
0.509941
0.910643
0.997281
0.975489
1.00718
1.01727
1.00286
1.00909
1.00026
1.00127
0.999751
0.999405
0.999891
0.999662
0.999995
0.99997
1.00001
1.00003
1.00001
1.00002
1
1
0.999999
0.999998
1
0.999999
1
1
1
1
1
1
1
1
1
1
1
1
1
1
1
1
1
1
1
1
1
1
1
1
1
1
1
1
1
1
1
1
1
1
1
1
1
1
1
1
1
1
1
1
1
1
1
1
1
1
1
1
1
1
1
1
1
1
1
1
1
1
1
1
1
1
1
1
1
1
1
1
1
1
1
1
1
1
1
1
1
1
1
1
1
1
1
1
1
1
1
1
1
1
1
1
1
1
1
1
1
1
1
1
1
1
1
1
1
1
1
1
1
1
1
1
1
1
1
1
1
1
1
1
1
1
1
1
1
1
1
1
1
1
1
1
1
1
1
1
1
1
1
1
1
1
1
1
1
1
1
1
1
1
1
1
1
1
1
1
1
1
1
1
1
1
1
1
1
1
1
1
1
0.11164
-0.00310636
-0.000317299
5.52315e-05
-1.03085e-05
1.75243e-07
1.75516e-07
-3.22223e-08
2.01359e-09
3.75098e-10
-1.68621e-10
1.44735e-11
1.36946e-12
-8.03013e-13
9.04784e-14
5.81518e-15
-3.42927e-15
4.67909e-16
-1.87757e-17
-1.54752e-17
4.04572e-18
-1.96318e-19
-7.84983e-20
3.39672e-20
-3.61833e-21
-1.27089e-21
5.00385e-22
5.85209e-23
-3.14623e-23
-5.67903e-24
8.8147e-25
3.36559e-25
1.62933e-26
-5.8722e-27
-1.41489e-27
-1.41346e-29
2.10333e-29
3.21186e-30
9.65959e-32
-4.11641e-32
-5.8302e-33
-1.23918e-34
5.3172e-35
7.91803e-36
3.8136e-37
-3.83181e-38
-9.261e-39
-6.80637e-40
1.69357e-41
-1.84922e-59
2.07765e-41
-3.07111e-40
-1.17268e-38
-3.74517e-37
3.31665e-36
5.03263e-35
1.34367e-33
2.18675e-32
-3.9933e-31
-4.46444e-30
-2.3459e-28
-9.71192e-28
-6.08341e-27
1.26368e-25
1.52981e-24
-4.46299e-24
-3.27999e-23
1.31341e-21
1.05951e-20
-7.50813e-20
5.09974e-19
1.21938e-17
5.39993e-17
-5.98484e-17
-1.02353e-15
1.87548e-14
8.93574e-14
-1.32575e-14
-1.39079e-12
-9.44825e-12
-1.83965e-11
-6.8636e-12
2.41649e-10
-5.33378e-10
1.76784e-10
1.71707e-09
-3.75316e-09
-1.4493e-09
-9.2376e-09
5.21941e-08
1.39674e-07
7.22894e-08
-1.73536e-06
-5.64135e-06
-2.42186e-06
3.21223e-05
0.000146253
0.000384907
0.00062634
0.00097138
1
1
1
1
1
1
1
1
1
1
1
1
1
1
1
1
1
1
1
1
1
1
1
1
1
1
1
1
1
1
1
1
1
1
1
1
1
1
1
1
1
1
1
1
1
1
1
1
1
1
1
1
1
1
1
1
1
1
1
1
1
1
1
1
0.999999
1
0.999999
0.999999
1
1
1
1
1
1
0.999993
0.999995
0.999989
0.999992
0.999995
0.999996
1
1
1.00001
1.00001
1.00003
1.00002
1.00005
1.00003
1.00008
1.00007
1.0001
1.0001
1.00011
1.00012
0.999993
1.00004
0.999563
0.999699
0.998535
0.998846
0.996586
0.997159
0.993608
0.994482
0.989013
0.990431
0.982406
0.984511
0.973391
0.97619
0.961373
0.96496
0.945968
0.950707
0.926508
0.932485
0.903429
0.910412
0.876232
0.884551
0.844698
0.854206
0.809877
0.820047
0.771462
0.78283
0.728695
0.741287
0.684823
0.697492
0.639263
0.652546
0.591631
0.605754
0.54316
0.55717
0.496415
0.509749
0.449435
0.462814
0.404059
0.417053
0.359575
0.372222
0.318888
0.330383
0.280884
0.291775
0.244275
0.254636
0.211907
0.220999
0.18236
0.190675
0.155435
0.162947
0.132024
0.138507
0.111569
0.117322
0.0928806
0.0980464
0.0773725
0.0816151
0.0640342
0.0676977
0.0524598
0.05564
0.0429746
0.0456308
0.034683
0.0369746
0.0280325
0.0298687
0.0224255
0.0239636
0.0177487
0.0190175
0.0140898
0.015082
0.011138
0.0119466
0.00865522
0.00931656
0.00671875
0.00722451
0.00519668
0.00560196
0.00396999
0.00431341
0.00297753
0.00326202
0.00224179
0.00245745
0.00157049
0.00109514
0.00172104
1.84061e-41
0.000777875
0.0139069
-0.00200416
0.000101508
-3.29739e-06
-3.45346e-06
5.32192e-07
-1.86721e-08
-8.67423e-09
1.98581e-09
-2.29594e-10
-3.01286e-11
1.01881e-11
-1.26524e-12
-1.00739e-13
5.22175e-14
-6.12618e-15
-2.63306e-16
1.93724e-16
-4.54607e-17
2.183e-18
1.29713e-18
-3.06004e-19
3.07571e-20
9.5291e-21
-4.11752e-21
3.16663e-22
2.60831e-22
-2.41504e-23
-1.78257e-23
-4.16877e-25
7.23642e-25
1.0446e-25
-4.82005e-27
-3.43959e-27
-3.62719e-28
3.55703e-29
8.88412e-30
8.63992e-31
-5.3766e-32
-1.77258e-32
-1.34593e-33
6.77415e-35
2.38552e-35
2.05767e-36
5.84062e-39
-2.35405e-38
-2.88572e-39
-9.41934e-41
-0.00133342
2.08303e-41
0.000893251
-1.38171e-40
-4.0259e-40
2.13354e-37
-1.64331e-36
-7.12588e-36
-5.28725e-35
-1.07716e-32
3.53933e-32
1.48264e-30
4.12695e-29
6.26952e-28
2.76216e-27
-1.19481e-26
-5.70833e-25
-1.44445e-24
2.37366e-23
-1.86481e-22
-4.85771e-21
-1.2073e-21
1.53726e-19
-3.94368e-18
-2.68478e-17
-8.13797e-17
6.36482e-16
-2.45973e-15
-5.43703e-14
-7.61171e-14
2.89088e-13
4.58819e-12
1.28057e-11
3.26659e-11
-1.15322e-10
-1.77297e-12
4.34519e-10
-7.26257e-10
1.87315e-09
-4.37333e-09
-8.45193e-09
1.86891e-08
1.19186e-07
7.82384e-08
-4.75494e-07
-3.50411e-06
-5.69815e-06
9.4302e-06
7.11145e-05
0.00026398
0.000550234
0.000148593
0.0642368
-2.77272e-05
0.453368
0.000140418
1.57756e-06
-1.07378e-05
1.40764e-06
-1.25929e-08
-2.71604e-08
5.36429e-09
-5.3326e-10
-1.0663e-10
2.86304e-11
-3.09297e-12
-3.83741e-13
1.51933e-13
-1.55491e-14
-1.31029e-15
5.49883e-16
-1.19366e-16
3.85101e-18
3.89445e-18
-8.1671e-19
8.07427e-20
2.54612e-20
-1.15408e-20
1.19559e-21
8.33345e-22
-8.48801e-23
-6.12608e-23
-2.09902e-24
2.32385e-24
3.87757e-25
-1.28496e-26
-1.12857e-26
-1.37998e-27
1.01756e-28
3.15489e-29
3.24599e-30
-1.35889e-31
-6.25895e-32
-5.36592e-33
1.73443e-34
8.54401e-35
7.98764e-36
1.20735e-37
-8.12226e-38
-1.06774e-38
-4.55098e-40
4.60643e-41
-7.37053e-40
1.73737e-37
-1.73276e-36
-4.13324e-36
-4.05793e-35
-7.63138e-33
1.0597e-31
2.58439e-30
4.66268e-29
5.18025e-28
1.35788e-27
-1.51814e-26
-4.02431e-25
-3.3194e-26
2.05077e-23
-1.96178e-22
-3.85208e-21
-3.19859e-22
9.72855e-20
-3.36752e-18
-1.92042e-17
-5.00382e-17
5.88858e-16
-1.62241e-15
-4.073e-14
-5.02295e-14
1.19781e-13
3.1185e-12
9.09169e-12
2.84081e-11
-9.341e-11
1.5882e-12
3.41944e-10
-5.25111e-10
1.66035e-09
-4.61925e-09
-8.88556e-09
2.05327e-08
1.29036e-07
9.68306e-08
-5.89905e-07
-3.95424e-06
-6.16263e-06
1.17244e-05
8.41197e-05
0.000302028
0.000612994
-1.26712e-40
-1.13217e-07
5.32847e-07
-8.58979e-08
3.92802e-09
1.22829e-09
-4.57859e-10
3.28321e-11
4.88639e-12
-2.17935e-12
2.26137e-13
2.23207e-14
-9.30788e-15
1.09423e-15
-2.85848e-17
-4.59128e-17
1.0414e-17
-3.78915e-19
-2.24418e-19
8.72091e-20
-9.2764e-21
-3.32563e-21
1.65844e-21
1.84555e-22
-1.07837e-22
-2.03385e-23
2.39083e-24
1.15832e-24
6.82163e-26
-1.97009e-26
-4.78548e-27
-1.20759e-28
7.41338e-29
1.11841e-29
4.7207e-31
-1.40825e-31
-2.12109e-32
-7.36869e-34
1.77382e-34
2.95198e-35
1.63935e-36
-1.16958e-37
-3.37732e-38
-2.69908e-39
4.00514e-42
-3.69743e-39
-2.91107e-37
3.08189e-36
4.88311e-35
8.86221e-34
6.16355e-33
-6.51567e-31
-8.1345e-30
-2.22572e-28
-5.73778e-28
-2.77964e-27
1.04586e-25
9.6292e-25
-5.82726e-24
-1.69149e-23
1.19169e-21
8.10154e-21
-5.76489e-20
5.2367e-19
1.00098e-17
3.73502e-17
-7.70906e-17
-9.36471e-16
1.42389e-14
6.63729e-14
3.95952e-16
-8.54762e-13
-6.73911e-12
-1.38659e-11
-8.4235e-12
2.14872e-10
-4.72578e-10
1.70341e-10
1.64407e-09
-3.58162e-09
-2.38836e-09
-8.65992e-09
6.01094e-08
1.52607e-07
3.55364e-08
-1.98442e-06
-6.19772e-06
-2.01194e-06
3.78173e-05
0.000170635
0.000444185
0.000708944
-0.00528114
-0.00556021
-2.61449e-40
0.594883
-0.00160947
0.942444
1.00339
0.979133
1.00791
1.01325
1.00265
1.00761
0.999944
1.00096
0.999656
0.999356
0.999885
0.999649
1
0.999959
1.00002
1.00003
1.00001
1.00002
1
1
0.999999
0.999998
1
0.999999
1
1
1
1
1
1
1
1
1
1
1
1
1
1
1
1
1
1
1
1
1
1
1
1
1
1
1
1
1
1
1
1
1
1
1
1
1
1
1
1
1
1
1
1
1
1
1
1
1
1
1
1
1
1
1
1
1
1
1
1
1
1
1
1
1
1
1
1
1
1
1
1
1
1
1
1
1
1
1
1
1
1
1
1
1
1
1
1
1
1
1
1
1
1
1
1
1
1
1
1
1
1
1
1
1
1
1
1
1
1
1
1
1
1
1
1
1
1
1
1
1
1
1
1
1
1
1
1
1
1
1
1
1
1
1
1
1
1
1
1
1
1
1
1
1
1
1
1
1
1
1
1
1
1
1
1
1
1
1
1
1
1
1
1
1
1
1
1
1
-2.90484e-40
0.00261077
0.000236229
0.235597
-1.05639e-05
-3.43467e-06
7.57138e-07
-5.52954e-08
-7.56084e-09
3.24048e-09
-3.78287e-10
-2.40989e-11
1.56867e-11
-2.16086e-12
-8.05637e-14
7.11841e-14
-1.06736e-14
4.12216e-16
2.87357e-16
-7.7947e-17
5.24814e-18
1.4378e-18
-5.5634e-19
7.24803e-20
1.15001e-20
-8.30596e-21
4.90921e-22
6.59787e-22
1.03397e-23
-3.48576e-23
-4.59107e-24
6.46199e-25
1.98023e-25
1.08706e-26
-3.65274e-27
-7.29292e-28
-7.05437e-30
1.03317e-29
1.61312e-30
4.21988e-32
-1.85685e-32
-2.61288e-33
-8.27844e-35
2.35386e-35
3.70918e-36
2.18573e-37
-7.81338e-39
-3.38263e-39
-3.07579e-40
1.20666e-38
-0.00445074
-0.00527208
-0.00421271
3.20861e-42
0.0011346
0.001557
-1.31586e-05
-1.12008e-05
0.517419
-5.77015e-37
4.76275e-36
6.63889e-35
4.28662e-34
1.22039e-32
-8.00882e-31
-1.01238e-29
-2.69066e-28
-8.08094e-28
-4.60681e-27
1.06526e-25
1.29603e-24
-6.52075e-24
-4.09691e-23
1.43345e-21
1.1938e-20
-6.24136e-20
3.80482e-19
1.3286e-17
5.33868e-17
-2.39052e-17
-1.59122e-15
1.65707e-14
1.07768e-13
4.74115e-14
-9.8596e-13
-1.0146e-11
-2.16274e-11
-3.4527e-11
3.53459e-10
-6.1047e-10
-9.44283e-12
2.77454e-09
-6.32726e-09
-2.71103e-09
-5.98314e-09
9.34659e-08
1.80073e-07
-6.93649e-08
-3.13775e-06
-8.10597e-06
1.11642e-06
6.19465e-05
0.000256169
0.000618464
0.000849167
0.0011182
0.0528654
0.185682
0.025489
7.61732e-05
0.000473589
6.62957e-05
7.89362e-06
1
1
1
1
1
1
1
1
1
1
1
1
1
1
1
1
1
1
1
1
1
1
1
1
1
1
1
1
1
1
1
1
1
1
1
1
1
1
1
1
1
1
1
1
1
1
1
1
1
1
1
1
1
1
1
1
1
1
1
1
1
1
0.999999
0.999999
1
0.999999
1
1
1
1
0.999998
1
0.999992
0.999995
0.999993
0.999993
1
0.999999
1.00001
1
1.00001
1
1.00002
1.00001
1.00004
1.00002
1.00008
1.00006
1.00011
1.00012
1.00013
1.00017
0.999999
1.00013
0.999517
0.999821
0.998434
0.999043
0.996448
0.99755
0.993382
0.99497
0.988821
0.991116
0.982337
0.98558
0.973281
0.977723
0.960979
0.966712
0.945757
0.952709
0.926617
0.935473
0.90335
0.913721
0.876448
0.888495
0.844958
0.858727
0.809466
0.824469
0.771073
0.786873
0.729255
0.746972
0.684694
0.703069
0.638967
0.657404
0.592586
0.611252
0.544314
0.563967
0.495938
0.514558
0.449767
0.468053
0.404463
0.421998
0.360428
0.377521
0.319209
0.334853
0.28148
0.29569
0.245437
0.259191
0.212445
0.224659
0.182779
0.193679
0.156092
0.165972
0.132376
0.141046
0.111883
0.119227
0.0935338
0.100228
0.07764
0.0833437
0.0640999
0.0688243
0.052831
0.0568884
0.0432444
0.0465495
0.0350735
0.037975
0.0282527
0.0306167
0.0226162
0.0245805
0.0179389
0.0195666
0.0142051
0.0154921
0.0112149
0.0122179
0.008753
0.0095947
0.00672631
0.00738601
0.00518413
0.00567694
0.00401797
0.00438994
0.00310077
0.00343303
0.759785
-1.90162e-40
-0.000422185
0.806072
-4.62137e-40
0.000213928
-3.33839e-40
-1.7118e-40
6.51626e-07
1.63027e-07
-4.58153e-08
4.84777e-09
4.09135e-10
-2.17895e-10
2.77078e-11
1.32186e-12
-1.08691e-12
1.45698e-13
3.03851e-15
-4.20022e-15
9.13485e-16
-5.28018e-17
-2.27195e-17
6.18899e-18
-6.27849e-19
-1.16219e-19
6.21508e-20
-9.4719e-21
-2.61328e-21
1.08741e-21
2.22429e-22
-4.46014e-23
-1.5957e-23
-2.04478e-25
4.62142e-25
6.01991e-26
-2.72632e-27
-2.06947e-27
-1.5755e-28
1.50425e-29
4.66578e-30
3.91313e-31
-2.19561e-32
-8.35354e-33
-6.20205e-34
2.24664e-35
1.0956e-35
1.01428e-36
2.35016e-38
-7.11428e-39
-1.12151e-39
7.97293e-39
-2.0881e-07
1.80831e-37
-1.92764e-36
-1.49944e-37
-3.09548e-35
-9.06884e-33
9.98554e-32
3.4442e-30
4.71253e-29
7.13277e-28
1.32099e-27
-1.25379e-26
-4.4589e-25
-6.9564e-25
2.5835e-23
-1.63044e-22
-4.47864e-21
-9.1746e-21
1.79197e-19
-3.76129e-18
-2.55908e-17
-8.75604e-17
7.48976e-16
-3.75053e-16
-5.52894e-14
-1.01723e-13
7.27148e-14
3.95242e-12
1.51287e-11
4.48469e-11
-9.82051e-11
-1.475e-10
7.15732e-10
-5.70174e-10
1.08948e-09
-5.15368e-09
-1.26924e-08
4.03456e-08
1.77387e-07
8.30743e-08
-1.13726e-06
-5.6472e-06
-6.51975e-06
2.29302e-05
0.000129239
0.000433509
0.000840484
1.61869e-06
-3.6976e-12
-1.22002e-39
3.80222e-11
0.00233334
-2.75324e-05
-1.26064e-10
0.000653666
0.000259226
6.0348e-05
-1.0518e-06
-8.71285e-06
-3.08494e-06
-7.75028e-09
2.0799e-07
9.34135e-08
-9.70856e-09
-3.27014e-09
-5.79499e-09
2.67143e-09
9.11737e-11
-6.48646e-10
3.37756e-10
-2.68919e-11
-1.96303e-11
-9.17882e-12
-8.88524e-13
2.40334e-14
9.32625e-14
1.77631e-14
-1.47945e-15
-1.01538e-16
4.71844e-17
1.34666e-17
6.47146e-19
-7.29649e-20
1.1045e-20
1.62534e-21
-2.92513e-23
-9.81594e-24
1.0738e-24
1.29527e-25
-2.25805e-27
-6.13539e-28
-3.20357e-28
-1.3343e-29
-1.04963e-30
3.81664e-33
8.56189e-34
6.90915e-35
-1.13552e-39
-9.22591e-39
-9.40841e-39
8.02446e-37
1.1754e-35
5.25285e-35
-3.85554e-34
-8.69186e-33
-4.37824e-32
2.24103e-31
4.8917e-30
2.63509e-29
-7.10082e-29
-2.27827e-27
-8.49276e-27
4.33108e-26
5.78917e-25
1.23396e-24
-1.52241e-23
-8.5593e-23
1.0074e-22
1.81051e-21
1.8789e-22
-2.01552e-20
4.08657e-20
9.91892e-20
-1.2504e-18
4.82323e-18
9.48471e-19
-1.58682e-16
8.77875e-16
-6.31867e-16
-1.79576e-14
1.83461e-13
-5.72735e-13
0.000896851
0.000445873
0.00012788
1.99207e-05
-7.84738e-06
-5.78594e-06
-1.02436e-06
1.25377e-07
1.85611e-07
3.52146e-08
-1.36395e-08
-5.74911e-09
1.65721e-09
-6.08742e-10
6.01756e-10
-7.37359e-11
-1.16279e-10
4.31058e-11
1.29407e-11
3.6988e-12
7.07341e-14
-7.37715e-14
-5.45106e-14
-1.32568e-15
8.37766e-16
-6.61231e-17
-2.44943e-17
-4.39976e-18
1.40391e-19
-2.59872e-21
-4.75047e-21
-2.55566e-22
3.00818e-23
5.27837e-25
-4.7789e-25
-2.29367e-26
9.45672e-28
7.25264e-28
6.52768e-29
4.26401e-30
1.5683e-31
2.05234e-37
-3.60945e-39
-1.71606e-38
1.254e-37
3.4268e-36
3.08849e-35
1.46595e-35
-2.15714e-33
-2.3877e-32
-2.82755e-32
1.36334e-30
1.3255e-29
2.66949e-29
-5.91924e-28
-5.24279e-27
-1.49299e-27
1.942e-25
1.12936e-24
-2.09777e-24
-4.43901e-23
-8.24422e-23
6.7564e-22
2.50685e-21
-7.94023e-21
-1.55767e-20
1.39793e-19
-3.91733e-19
-6.67582e-19
1.3011e-17
-7.03401e-17
6.7468e-18
1.82462e-15
-1.13344e-14
3.27425e-14
2.27785e-13
-2.81771e-12
8.2605e-12
4.07323e-11
-5.31601e-10
1.9919e-09
6.03971e-09
-1.04476e-07
5.89488e-07
7.83204e-09
-3.02927e-08
-3.21944e-08
-5.64741e-10
4.55523e-36
-4.46308e-37
-2.55176e-36
-1.21952e-36
-2.20246e-35
-9.61184e-33
0.000277452
0.982244
1.00991
1.00371
1.00638
1.01397
1.00125
1.00491
0.999712
1.00021
0.999713
0.999455
0.999923
0.999743
1.00001
0.999978
1.00002
1.00003
1
1.00001
0.999999
1
0.999999
0.999998
1
0.999999
1
1
1
1
1
1
1
1
1
1
1
1
1
1
1
1
1
1
1
1
1
1
1
1
1
1
1
1
1
1
1
1
1
1
1
1
1
1
1
1
1
1
1
1
1
1
1
1
1
1
1
1
1
1
1
1
1
1
1
1
1
1
1
1
1
1
1
1
1
1
1
1
1
1
1
1
1
1
1
1
1
1
1
1
1
1
1
1
1
1
1
1
1
1
1
1
1
1
1
1
1
1
1
1
1
1
1
1
1
1
1
1
1
1
1
1
1
1
1
1
1
1
1
1
1
1
1
1
1
1
1
1
1
1
1
1
1
1
1
1
1
1
1
1
1
1
1
1
1
1
1
1
1
1
1
1
1
1
1
1
1
1
1
1
1
-9.8142e-33
-1.11632e-05
3.28518e-13
-2.76665e-36
0.00266015
1.42473e-11
-3.23756e-09
2.78352e-09
1.07784e-06
6.55844e-08
-4.30315e-08
-2.53936e-08
5.86964e-09
8.24713e-09
7.47404e-09
0.000877914
0.00187728
-1.9338e-10
-8.49947e-11
3.97469e-40
3.38046e-11
3.91345e-11
0.00118828
-2.2808e-12
4.50393e-14
5.52371e-14
-1.30839e-14
9.28175e-16
2.38959e-16
-8.11563e-17
9.64486e-18
7.4657e-19
-6.52966e-19
1.16163e-19
7.16802e-21
-1.29877e-20
-2.05626e-23
8.9509e-22
8.78467e-23
-3.06011e-23
-6.69195e-24
1.89792e-25
2.00305e-25
2.40169e-26
-1.58376e-27
-7.39824e-28
-5.70142e-29
4.23993e-30
1.45113e-30
1.18673e-31
-6.28634e-33
-2.29935e-33
-2.22521e-34
1.79115e-36
2.34202e-36
2.40792e-37
8.87374e-39
-1.66997e-05
-2.49828e-05
-3.70817e-35
6.1277e-36
-7.961e-37
-3.67063e-36
8.56093e-35
8.16501e-36
1.63485e-34
6.17904e-34
-1.09468e-32
1.59303e-37
-6.21311e-37
1.69767e-31
5.78749e-30
6.97563e-29
9.42012e-28
3.88169e-28
-2.31156e-26
-4.97771e-25
3.71367e-25
3.86261e-23
-1.9853e-22
-5.59014e-21
-1.31973e-20
2.20093e-19
-4.66303e-18
-3.12823e-17
-1.01154e-16
9.19674e-16
5.34279e-16
-6.72746e-14
-1.38575e-13
-6.47636e-14
4.05797e-12
1.92146e-11
6.42793e-11
-1.00337e-10
-3.40398e-10
1.06293e-09
-4.12342e-10
1.31437e-10
-5.61407e-09
-1.87015e-08
6.62774e-08
2.49205e-07
8.62098e-08
-1.9142e-06
-8.03735e-06
-7.24227e-06
3.7458e-05
0.000196377
0.000619529
0.000906634
-1.62993e-06
-7.78345e-06
1.07711e-06
1
1
1
1
1
1
1
1
1
1
1
1
1
1
1
1
1
1
1
1
1
1
1
1
1
1
1
1
1
1
1
1
1
1
1
1
1
1
1
1
1
1
1
1
1
1
1
1
1
1
1
1
1
1
1
1
1
1
1
1
0.999999
0.999999
1
0.999999
1
1
1
1
0.999998
1
0.999994
0.999995
0.999997
0.999996
1
1
1
1
1
0.999997
1.00001
0.999997
1.00003
1.00002
1.00007
1.00006
1.00012
1.00012
1.00016
1.00018
1.00004
1.00016
0.999587
0.999893
0.99859
0.999187
0.996828
0.997861
0.994003
0.995581
0.989731
0.991945
0.983707
0.986879
0.975078
0.979322
0.963292
0.9689
0.948645
0.95534
0.930331
0.938939
0.908128
0.918171
0.882147
0.893712
0.851007
0.864738
0.816166
0.831034
0.778284
0.794563
0.737105
0.754626
0.693517
0.711566
0.647822
0.666394
0.60094
0.619864
0.553201
0.572323
0.505207
0.524376
0.458136
0.476475
0.413007
0.4308
0.368483
0.38571
0.326899
0.342831
0.288041
0.302226
0.251957
0.265733
0.218453
0.230858
0.188236
0.19956
0.160801
0.170941
0.136709
0.145596
0.115595
0.123275
0.0966462
0.103507
0.0805956
0.0864447
0.0664762
0.0714375
0.0547748
0.0589423
0.0447924
0.0482035
0.0364872
0.0394347
0.0294667
0.031893
0.0236136
0.0256024
0.0188044
0.0204572
0.0148909
0.0162209
0.0117285
0.0128089
0.00914196
0.0100247
0.00703296
0.0077259
0.00540403
0.00592967
0.00413381
0.00451328
3.09839e-05
-1.13942e-05
0.00137516
-0.00459306
-4.40636e-10
-5.18254e-10
-0.000867393
7.78045e-05
0.00186292
-5.19154e-40
0.572277
-1.12192e-39
8.91292e-35
0.872928
0.00268889
1.42844e-09
9.19172e-11
6.45133e-07
-8.21647e-08
7.22241e-36
1.50348e-06
5.74374e-11
0.001418
-1.25981e-14
-8.78043e-13
1.70736e-13
-8.64662e-15
-3.58765e-15
1.01799e-15
-9.60149e-17
-1.40457e-17
6.67953e-18
-1.04649e-18
-7.03008e-20
7.07655e-20
-1.58355e-20
-4.73761e-21
1.163e-21
3.94616e-22
-2.10652e-23
-1.76597e-23
-1.42804e-24
3.56437e-25
8.225e-26
3.2098e-27
-1.57829e-27
-2.46363e-28
-4.82515e-30
3.30189e-30
4.86006e-31
1.32735e-32
-5.13572e-33
-8.03197e-34
-3.90572e-35
4.59685e-36
8.59674e-37
5.75772e-38
6.53349e-12
2.89003e-38
0.00124728
0.0179633
-0.003371
4.7156e-36
6.59336e-36
-7.2548e-40
0.921152
-1.46411e-30
-1.18505e-30
1.11983e-32
6.73234e-30
1.95095e-33
-1.6695e-29
-3.7487e-28
-7.79095e-28
-2.49609e-27
1.26398e-25
1.24941e-24
-1.12401e-23
-5.54615e-23
1.72411e-21
1.4545e-20
-6.83293e-20
4.50819e-19
1.63233e-17
5.88238e-17
-3.92391e-17
-2.33544e-15
1.67264e-14
1.32784e-13
9.24664e-14
-6.37907e-13
-1.22047e-11
-2.77963e-11
-6.94217e-11
4.73975e-10
-7.09775e-10
-2.72686e-10
4.09373e-09
-9.16338e-09
-4.39978e-09
-2.02915e-09
1.39646e-07
2.30054e-07
-2.35867e-07
-4.74567e-06
-1.07761e-05
5.13226e-06
9.52363e-05
0.000379738
0.000195338
-1.94977e-29
0.00319946
0.0738136
0.000138865
0.000629368
0.000191386
3.35302e-05
-9.26787e-06
-8.32742e-06
-1.72584e-06
1.47734e-07
2.62458e-07
5.91354e-08
-2.0405e-08
-6.6047e-09
1.07047e-09
-5.65507e-10
9.33502e-10
-2.43275e-10
-1.26558e-10
6.288e-11
1.60923e-11
4.14204e-12
-5.90222e-14
-1.01736e-13
-6.70722e-14
-7.52047e-16
1.06906e-15
-7.31463e-17
-3.04802e-17
-5.53013e-18
1.82767e-19
-4.58319e-21
-6.32584e-21
-2.97132e-22
4.4567e-23
4.0924e-38
8.13025e-37
6.30294e-36
-1.39407e-35
-7.33737e-34
-6.52457e-33
-5.63545e-33
4.16785e-31
4.01049e-30
5.4016e-30
-2.08779e-28
-1.98304e-27
-1.36118e-27
7.92986e-26
5.00358e-25
-3.26912e-25
-1.98788e-23
-6.21213e-23
3.40668e-22
2.13629e-21
-2.23563e-21
-3.12721e-20
4.17119e-20
1.78165e-19
-1.5555e-18
4.15122e-18
9.96256e-18
-1.79595e-16
8.56714e-16
2.49035e-18
-2.72517e-14
-1.09124e-07
-6.80647e-10
0.000379685
9.14915e-05
2.3393e-06
-1.17458e-05
-4.68437e-06
-1.317e-07
2.70826e-07
1.38769e-07
-7.8122e-09
-5.11309e-09
-8.60229e-09
3.97336e-09
-1.1855e-10
-7.90796e-10
4.63346e-10
-5.76783e-11
-2.60015e-11
-1.09776e-11
-6.0776e-13
5.5718e-14
1.16054e-13
1.87984e-14
-2.24009e-15
-1.30293e-16
5.12502e-17
1.64518e-17
7.69669e-19
-8.67472e-20
1.30127e-20
1.98708e-21
-4.38937e-23
-0.00678227
-0.0031757
-0.00995505
-1.5547e-23
1.00299e-24
1.58275e-25
5.50439e-28
-5.08188e-28
-4.31441e-28
1.9568e-37
2.51541e-36
9.17767e-36
-1.69671e-34
-2.44686e-33
-1.22918e-32
7.53109e-32
1.46036e-30
7.42938e-30
-3.31379e-29
-7.654e-28
-3.38796e-27
1.61904e-26
2.31393e-25
6.76649e-25
-5.50319e-24
-4.47418e-23
8.28121e-24
1.10808e-21
2.07363e-21
-1.45778e-20
-2.73407e-20
1.71417e-19
-3.88977e-19
-1.39641e-18
1.53051e-17
-5.90567e-17
-4.97834e-17
2.11632e-15
-1.16808e-14
7.95566e-15
2.89877e-13
-2.47508e-12
-1.79368e-39
0.64697
2.68566e-38
3.93953e-07
-1.16855e-07
-1.68944e-39
1.64923e-13
-3.26796e-13
-3.84261e-12
2.35036e-39
1.98843e-37
1.93986e-24
-5.47672e-25
-3.51701e-26
9.08294e-30
2.36129e-31
9.50199e-28
8.99204e-29
0.00045649
-8.04472e-08
0.000860719
1.92378e-24
1.00293
1.00828
1.01211
1.00307
1.00796
1.00022
1.00185
0.999626
0.999683
0.999808
0.999572
0.999981
0.999882
1.00002
1.00002
1.00001
1.00003
1
1.00001
0.999999
0.999999
0.999999
0.999998
1
0.999999
1
1
1
1
1
1
1
1
1
1
1
1
1
1
1
1
1
1
1
1
1
1
1
1
1
1
1
1
1
1
1
1
1
1
1
1
1
1
1
1
1
1
1
1
1
1
1
1
1
1
1
1
1
1
1
1
1
1
1
1
1
1
1
1
1
1
1
1
1
1
1
1
1
1
1
1
1
1
1
1
1
1
1
1
1
1
1
1
1
1
1
1
1
1
1
1
1
1
1
1
1
1
1
1
1
1
1
1
1
1
1
1
1
1
1
1
1
1
1
1
1
1
1
1
1
1
1
1
1
1
1
1
1
1
1
1
1
1
1
1
1
1
1
1
1
1
1
1
1
1
1
1
1
1
1
1
1
1
1
0.694337
1
1.75689e-39
0.113514
4.64097e-38
0.00225675
0.228572
5.73605e-09
-1.50642e-10
5.09911e-07
-2.28502e-08
9.7321e-35
-4.40342e-10
-4.58044e-10
1.22949e-06
1.81553e-06
1.39007e-06
7.92024e-38
9.17748e-12
-2.1295e-12
3.98611e-09
2.7054e-07
-1.14256e-07
1.7681e-13
-1.50248e-14
-2.07593e-15
9.21975e-16
-1.22338e-16
-3.71424e-18
6.01775e-18
-1.26496e-18
4.63743e-20
9.06974e-20
-2.05442e-20
-7.28522e-21
8.02455e-22
4.65789e-22
1.43403e-23
-1.52237e-23
-2.36311e-24
1.23492e-25
7.42008e-26
7.7302e-27
-5.69695e-28
-2.07731e-28
-1.49552e-29
1.32489e-30
4.06641e-31
3.22289e-32
-8.236e-34
-5.2724e-34
-5.17714e-35
5.18193e-38
3.05866e-11
3.00197e-11
0.00159232
-0.00734108
-1.03536e-36
1.2732e-27
0.00178612
1.49785e-32
8.23933e-30
-0.000126951
4.4736e-37
9.50453e-29
-4.91768e-28
-5.45152e-28
1.24905e-27
-8.76475e-28
-3.66139e-26
-5.70717e-25
1.20487e-24
9.21864e-25
3.81921e-24
1.89317e-37
1.76886e-37
5.68524e-23
-2.23462e-22
-7.583e-21
-1.65915e-20
2.7524e-19
-5.83633e-18
-3.9808e-17
-1.07288e-16
1.1637e-15
1.61634e-15
-7.99702e-14
-1.79174e-13
-2.34924e-13
4.25084e-12
2.29489e-11
8.83669e-11
-8.08013e-11
-6.44977e-10
1.51572e-09
-4.49668e-11
-1.75177e-09
-5.87289e-09
-2.71916e-08
1.0594e-07
3.4154e-07
6.72021e-08
-3.08657e-06
-1.13722e-05
-7.39288e-06
6.0627e-05
0.000288913
1.46686e-35
1.01419e-34
-2.27282e-29
-2.593e-29
1.10411e-28
1
0.463056
1
1
1
1
1
1
1
1
1
1
1
1
1
1
1
1
1
1
1
1
1
1
1
1
1
1
1
1
1
1
1
1
1
1
1
1
1
1
1
1
1
1
1
1
1
1
1
1
1
1
1
1
1
1
1
1
0.999999
0.999999
1
1
1
1
1
1
0.999998
0.999999
0.999996
0.999996
1
0.999999
1
1
1
0.999999
0.999993
0.999991
0.999998
0.999991
1.00002
1.00001
1.00007
1.00006
1.00013
1.00012
1.00018
1.00019
1.00008
1.00019
0.99968
0.999967
0.998808
0.999355
0.997271
0.998198
0.994674
0.996225
0.990758
0.992858
0.98522
0.988196
0.976887
0.981212
0.965755
0.971179
0.951812
0.958596
0.934301
0.942875
0.913093
0.923145
0.887931
0.899755
0.857316
0.871384
0.823433
0.838163
0.786597
0.803086
0.745463
0.763234
0.702556
0.720517
0.657163
0.676525
0.610106
0.629837
0.562719
0.582507
0.514806
0.534817
0.467573
0.48674
0.422514
0.440959
0.376971
0.395201
0.334899
0.351218
0.295184
0.31061
0.258354
0.272771
0.224815
0.237807
0.194312
0.206279
0.166102
0.176661
0.141621
0.150934
0.119643
0.127973
0.1001
0.10735
0.083868
0.0898625
0.0691103
0.074534
0.0568643
0.0612244
0.046551
0.050273
0.0379221
0.0410965
0.0306809
0.0332597
0.0247063
0.0269062
0.0195655
0.02137
0.0155887
0.0170055
0.0123321
0.0135194
0.00961016
0.0105625
0.00738345
0.00811666
0.00567694
0.00628028
0.0042558
0.0047362
0.000126296
0.000292128
0.000347145
0.000322973
0.756643
-1.83369e-23
6.37044e-23
1.1053e-35
1.75151e-35
-1.85903e-10
-7.56029e-10
0.00118637
0.00122835
0.00167408
0.000540774
0.000881687
-3.88045e-36
9.95795e-36
-1.49653e-30
8.74041e-30
1.04003e-37
1.45727e-37
-8.30814e-37
1.80324e-13
3.62594e-13
-0.00272339
-0.00153449
-5.05168e-36
4.60955e-37
4.68149e-38
-1.42892e-34
5.29792e-35
-3.09418e-35
0.00238951
-5.78556e-11
1.39306e-11
1.79345e-21
8.92216e-22
-1.82289e-05
0.00342986
2.00754e-09
6.16372e-20
9.16975e-21
1.26142e-09
9.46367e-09
2.458e-12
-1.47839e-12
-1.49798e-18
-5.61093e-19
0.000539402
1.73966e-17
1.2337e-17
-3.9268e-12
-5.31537e-13
3.86103e-14
-1.22724e-14
1.37733e-15
1.2173e-16
-7.09956e-17
1.54714e-17
9.01603e-20
-1.71805e-19
1.72832e-19
-2.82582e-20
-1.6576e-20
-1.28451e-21
1.1941e-21
1.47702e-22
-1.65022e-23
-7.68601e-24
-3.33293e-25
1.36941e-25
2.85345e-26
7.23471e-28
-4.62095e-28
-6.55274e-29
-9.44147e-31
9.55578e-31
1.2805e-31
4.95956e-33
-1.07285e-33
-1.846e-34
-9.2634e-36
5.21794e-11
8.54361e-37
0.00192198
-1.72396e-16
7.79804e-14
1.29862e-13
3.04947e-14
1.50652e-13
6.53161e-16
1.11229e-15
0.00311369
0.935175
-1.07267e-32
-1.19346e-32
5.13489e-33
-0.00740284
5.97709e-09
0.96961
-2.34253e-23
1.11647e-36
0.80381
2.21355e-31
-7.72909e-28
1.02389e-27
1.75551e-25
-7.38417e-23
-8.49054e-23
0.0569193
-3.44411e-22
0.202537
2.10105e-21
1.51766e-20
-7.76761e-20
4.919e-19
1.89223e-17
6.02699e-17
-5.91107e-17
-3.27826e-15
1.49628e-14
1.60401e-13
-2.25064e-13
-1.67417e-13
-1.31839e-11
-3.73408e-11
-1.15054e-10
6.07569e-10
-7.64616e-10
-6.92484e-10
5.46528e-09
-1.24308e-08
-7.87976e-09
7.62062e-09
2.01105e-07
2.84373e-07
-5.35494e-07
-6.95627e-06
-1.40567e-05
1.25849e-05
0.000143787
7.80512e-10
-7.70529e-06
-2.00856e-05
-3.86177e-06
6.85389e-35
7.04991e-05
3.362e-06
0.266977
0.000286627
5.5699e-05
-1.02326e-05
-1.19337e-05
-2.90312e-06
1.56313e-07
3.63948e-07
9.88309e-08
-2.9999e-08
-7.28333e-09
-5.23347e-10
-2.17129e-10
1.37741e-09
-5.2179e-10
-1.12037e-10
8.51641e-11
1.96873e-11
-1.29954e-13
-7.85791e-14
-4.15249e-36
-1.69083e-34
-1.37406e-33
1.32121e-33
5.06666e-22
1.11889e-31
1.1083e-30
1.72732e-30
-5.44217e-29
-5.58633e-28
-4.69085e-28
2.67435e-26
1.80667e-25
9.31971e-27
-7.73585e-24
-3.11635e-23
0.000139238
8.41405e-06
-1.55939e-05
-6.93034e-06
-3.85525e-07
3.43872e-07
2.02833e-07
-1.51138e-09
-8.59744e-09
-1.19953e-08
5.54095e-09
-4.69935e-10
-9.11397e-10
6.14932e-10
-1.0113e-10
-3.38894e-11
-1.18531e-11
-0.000567361
-0.00980062
-1.93793e-13
1.41982e-13
1.86764e-14
-3.1862e-15
-1.69808e-16
5.08483e-17
1.93716e-17
-4.11224e-17
8.55249e-19
-1.01661e-19
1.42475e-20
4.43256e-27
2.90116e-31
-3.14976e-28
1.27747e-36
-4.03373e-35
-5.58965e-34
-2.00919e-33
2.42592e-32
4.04964e-31
2.11448e-30
-8.84971e-30
-2.06496e-28
-9.95484e-28
5.14167e-27
8.10524e-26
2.71875e-25
-1.68223e-24
-1.95522e-23
-1.87987e-23
-1.2955e-16
2.16394e-15
-6.04691e-21
-3.83752e-20
4.79192e-22
-1.86893e-12
3.16444e-19
-9.39566e-15
3.1347e-18
-6.06764e-15
-2.73985e-14
-1.96525e-18
2.40865e-19
-2.0346e-20
-6.07349e-21
1.00025e-22
4.70054e-16
1.36407e-15
-7.36298e-17
-3.61178e-17
-6.67576e-18
2.4138e-19
-7.52895e-21
-5.71734e-25
-5.22804e-26
-1.66486e-27
-1.81442e-30
2.07594e-25
2.43743e-21
3.97908e-12
-2.2925e-05
-2.70597e-12
0.000244632
1.00755
1.00503
1.00848
1.00124
1.00397
0.999701
1.00032
0.999651
0.999415
0.999889
0.999679
1.00001
0.99995
1.00002
1.00003
1.00001
1.00002
1
1
0.999999
0.999998
0.999999
0.999999
1
1
1
1
1
1
1
1
1
1
1
1
1
1
1
1
1
1
1
1
1
1
1
1
1
1
1
1
1
1
1
1
1
1
1
1
1
1
1
1
1
1
1
1
1
1
1
1
1
1
1
1
1
1
1
1
1
1
1
1
1
1
1
1
1
1
1
1
1
1
1
1
1
1
1
1
1
1
1
1
1
1
1
1
1
1
1
1
1
1
1
1
1
1
1
1
1
1
1
1
1
1
1
1
1
1
1
1
1
1
1
1
1
1
1
1
1
1
1
1
1
1
1
1
1
1
1
1
1
1
1
1
1
1
1
1
1
1
1
1
1
1
1
1
1
1
1
1
1
1
1
1
1
1
1
1
-4.73943e-19
-3.92479e-10
-1.95879e-35
-2.90397e-13
-1.08357e-34
5.99081e-38
2.42181e-25
4.52242e-22
-3.18978e-08
-2.93465e-23
7.01063e-22
1.03212e-21
2.40632e-19
-2.56775e-21
-1.75608e-14
1.37952e-13
2.26299e-13
3.31817e-13
-9.66189e-19
1.48257e-15
4.39801e-18
6.52678e-19
1.55376e-14
9.54647e-14
-1.90174e-14
1.31046e-17
1.32133e-17
-1.80594e-20
-6.35589e-16
1.8674e-15
1.53318e-13
5.12313e-19
5.88645e-18
2.21639e-17
4.18041e-12
-1.76078e-12
1.50346e-19
-3.60035e-21
4.56544e-19
-1.44884e-18
-1.46752e-18
0.000768021
-1.81708e-20
2.23629e-31
2.4218e-22
-1.0769e-21
1.12521e-21
3.72525e-15
0.000216053
4.85395e-23
-9.84357e-24
-2.59362e-24
-8.12705e-26
4.57884e-26
7.82943e-27
1.0503e-28
-1.25516e-28
-1.87148e-29
-2.7206e-31
3.4509e-31
4.95076e-31
-9.44429e-21
-8.99107e-21
2.9694e-32
1.0768e-33
-2.17864e-34
-2.76268e-34
-7.62581e-11
0.568575
0.243387
0.0023519
1.99595e-13
4.60602e-13
-1.75463e-30
-2.30366e-18
-0.00767335
-7.7284e-28
-1.43788e-08
0.000426913
0.000771532
-5.40046e-36
2.4762e-21
-9.38772e-36
2.6334e-31
-2.03399e-30
-6.09673e-26
2.73278e-25
-1.3924e-22
0.0253249
-2.29824e-22
-3.66354e-22
2.82702e-21
5.04385e-27
-8.07031e-26
2.00158e-20
-1.71257e-20
1.87354e-20
-4.60072e-21
-8.57871e-21
1.74303e-20
3.6502e-19
9.43589e-19
2.26838e-17
6.49612e-17
-8.3992e-17
-4.49331e-15
2.09674e-15
-3.67392e-35
-3.34501e-35
-8.79638e-14
1.77809e-13
-4.17747e-13
4.32795e-13
-1.90224e-12
-4.33595e-12
-1.43215e-12
-2.18834e-13
8.25387e-14
-1.44408e-11
-4.66559e-11
-1.86096e-10
7.84367e-10
-7.32298e-10
-1.2635e-09
7.3826e-09
-1.65906e-08
-1.40426e-08
2.64734e-08
2.89684e-07
3.48508e-07
-1.0662e-06
-1.02241e-05
-1.8219e-05
2.4987e-05
9.59817e-05
0.000209469
5.09085e-09
-8.96843e-08
1
1
1
1
1
1
1
1
1
1
1
1
1
1
1
1
1
1
1
1
1
1
1
1
1
1
1
1
1
1
1
1
1
1
1
1
1
1
1
1
1
1
1
1
1
1
1
1
1
1
1
1
1
1
1
0.999999
0.999999
1
1
1
1
1
1
0.999998
0.999999
0.999997
0.999998
1
1
1
1
0.999995
0.999996
0.999987
0.999987
0.999993
0.999987
1.00002
1.00001
1.00007
1.00005
1.00013
1.00011
1.00018
1.00019
1.00011
1.00021
0.999788
1.00004
0.999048
0.999537
0.997736
0.998557
0.995482
0.996905
0.991925
0.993978
0.986812
0.989604
0.979069
0.983359
0.968631
0.974057
0.955484
0.962389
0.939144
0.94731
0.919085
0.929075
0.894467
0.906269
0.864877
0.879119
0.83178
0.846815
0.796156
0.812551
0.75547
0.774191
0.712058
0.731247
0.667878
0.687975
0.621975
0.642245
0.574199
0.594925
0.526503
0.546648
0.479681
0.499682
0.433438
0.452491
0.387625
0.407343
0.344073
0.361826
0.30416
0.321158
0.266571
0.281587
0.232998
0.246642
0.201495
0.214014
0.172478
0.184151
0.146903
0.156767
0.124962
0.133599
0.104528
0.11247
0.0872832
0.0937022
0.0722893
0.0782739
0.0593564
0.0642324
0.0487506
0.0528628
0.0398162
0.0431758
0.0323577