/*--------------------------------*- C++ -*----------------------------------*\
  =========                 |
  \\      /  F ield         | OpenFOAM: The Open Source CFD Toolbox
   \\    /   O peration     | Website:  https://openfoam.org
    \\  /    A nd           | Version:  7
     \\/     M anipulation  |
\*---------------------------------------------------------------------------*/
FoamFile
{
    version     2.0;
    format      ascii;
    class       volScalarField;
    location    "0.35";
    object      T;
}
// * * * * * * * * * * * * * * * * * * * * * * * * * * * * * * * * * * * * * //

dimensions      [0 0 0 1 0 0 0];

internalField   nonuniform List<scalar> 
5936
(
0.509388
0.913124
0.999003
0.982342
1.00586
1.01594
1.00206
1.00701
1.00021
1.00101
0.999888
0.999759
0.999951
0.999845
0.999998
0.99998
1
1
0.999999
0.999997
0.999999
0.999995
0.999999
0.999998
1
1
1
1
1
1
1
1
1
1
1
1
1
1
1
1
1
1
1
1
1
1
1
1
1
1
1
1
1
1
1
1
1
1
1
1
1
1
1
1
1
1
1
1
1
1
1
1
1
1
1
1
1
1
1
1
1
1
1
1
1
1
1
1
1
1
1
1
1
1
1
1
1
0.999996
0.999999
0.116255
-0.00308448
-0.00022038
4.07941e-05
-3.2338e-07
3.68041e-07
1.50355e-09
-1.42247e-08
-7.58383e-10
1.18143e-10
2.62303e-11
1.18622e-12
-6.93864e-14
-1.13995e-14
-3.98193e-16
9.99734e-18
1.21474e-18
4.51456e-20
-6.46274e-23
-7.14514e-23
-3.46172e-24
-4.93884e-26
1.82646e-27
1.17133e-28
-7.7081e-46
7.3673e-30
-9.02254e-29
-1.4382e-26
-2.78596e-25
-5.34199e-24
-7.20825e-23
-2.29411e-21
-3.69388e-21
-1.7039e-19
1.64417e-19
5.02269e-17
1.20674e-16
-3.66456e-15
-1.49013e-14
-3.90701e-14
3.44809e-14
9.13641e-14
3.5109e-14
-4.16688e-12
1.07722e-11
4.56047e-12
1.51516e-11
6.73539e-11
6.83336e-11
9.15126e-11
1.00001
0.999996
1.00002
1.00002
0.999909
0.999981
1.00005
0.999924
1.00025
1.00019
1.00007
1.00011
0.999233
0.999639
0.997733
0.998113
1.00175
1.00003
1.01175
1.00836
1.01272
1.01265
0.989197
0.997899
0.93053
0.950716
0.836742
0.866612
0.714874
0.752527
0.578383
0.619248
0.447931
0.486748
0.329878
0.364949
0.233346
0.260672
0.160796
0.180802
0.104075
0.119264
0.065432
0.0756417
0.0395587
0.0463694
0.0229847
0.0272482
0.0134678
0.0159517
0.00751197
0.00903821
0.00409757
0.00496813
0.00220737
0.0026837
0.00114506
0.00140877
0.000587941
0.000726849
0.000298283
0.000368934
0.000147687
0.000183985
7.10813e-05
8.93463e-05
3.4086e-05
4.29319e-05
1.56248e-05
1.98827e-05
7.27345e-06
9.23374e-06
3.31629e-06
4.23969e-06
1.45111e-06
1.87275e-06
6.48098e-07
8.33959e-07
2.78302e-07
3.62454e-07
1.17149e-07
1.53191e-07
5.09281e-08
6.63158e-08
2.11953e-08
2.79598e-08
9.01288e-09
1.19198e-08
3.66914e-09
4.98029e-09
1.5595e-09
2.15582e-09
7.01417e-10
9.85787e-10
2.59439e-10
1.29466e-10
3.74514e-10
9.42644e-30
8.04289e-11
0.0134561
-0.00159023
6.88061e-05
7.01137e-06
9.88566e-08
1.56521e-07
-2.68115e-08
-4.32508e-09
3.61974e-11
7.09638e-11
6.78172e-12
4.4171e-14
-3.56259e-14
-2.58604e-15
-2.27097e-17
4.54955e-18
2.65537e-19
5.05065e-21
-2.14726e-22
-1.75599e-23
-5.13582e-25
8.33092e-28
5.38685e-28
-0.000921879
2.30962e-29
1.17495e-10
3.37531e-29
-5.88245e-28
7.64944e-26
2.23802e-24
-8.35026e-25
6.28185e-22
5.542e-21
1.18001e-20
4.30822e-19
-8.17047e-18
-1.49425e-16
7.78983e-16
8.25718e-15
2.56356e-14
4.19238e-14
-2.18802e-13
3.30919e-13
-2.70792e-14
1.04239e-12
8.93004e-12
-4.84404e-12
4.6769e-11
8.02907e-11
0.000130904
0.0664674
1.85251e-06
0.457247
0.000144324
3.00525e-05
5.76957e-07
4.78153e-07
-8.4882e-08
-1.59824e-08
5.12884e-11
2.4215e-10
2.61116e-11
3.54941e-13
-1.28935e-13
-1.03784e-14
-1.59785e-16
1.64742e-17
1.06549e-18
2.56616e-20
-7.27858e-22
-7.0396e-23
-2.3982e-24
-8.34085e-27
2.15037e-27
9.11985e-29
-8.02004e-28
9.43258e-26
2.38203e-24
-5.49578e-24
6.09037e-22
4.67884e-21
3.82583e-21
4.73513e-19
-9.29373e-18
-1.79391e-16
7.15796e-16
8.78908e-15
2.88346e-14
5.05576e-14
-2.69663e-13
4.29156e-13
-3.07456e-13
1.88785e-12
1.26156e-11
-4.26265e-12
6.67571e-11
1.12114e-10
4.28183e-29
1.03802e-06
1.48431e-08
-4.97491e-08
-3.05568e-09
4.0485e-10
9.64833e-11
4.91281e-12
-2.18657e-13
-4.2021e-14
-1.79302e-15
2.62051e-17
4.88055e-18
2.05187e-19
8.94521e-22
-2.8048e-22
-1.47278e-23
-2.73395e-25
5.91262e-27
4.79947e-28
-1.70622e-26
-2.60817e-25
-6.01602e-24
-5.84866e-23
-2.10909e-21
-3.18114e-23
-1.89134e-19
2.80658e-19
5.79225e-17
1.93656e-16
-3.86884e-15
-1.64142e-14
-4.45092e-14
3.64489e-14
1.22387e-13
4.57559e-14
-5.20218e-12
1.46891e-11
6.29112e-12
2.3361e-11
9.63835e-11
1.0039e-10
-0.00556457
-0.00532412
-2.36864e-28
0.596807
-0.00118199
0.957427
1.0026
0.985738
1.00456
1.0082
1.00136
1.00401
0.999965
1.00053
0.999866
0.999788
0.999986
0.999954
1.00002
1.00005
1.00001
1.00003
1
1
0.999997
0.999996
0.999998
0.999996
0.999999
0.999997
0.999998
0.999997
0.999999
0.999997
0.999998
0.999998
0.999998
0.999997
0.999998
0.999997
0.999998
0.999997
0.999998
0.999997
0.999998
0.999997
0.999998
0.999998
0.999999
0.999998
0.999999
0.999998
0.999999
0.999998
0.999999
0.999997
0.999999
0.999998
0.999999
0.999998
0.999999
0.999998
0.999999
0.999998
0.999998
0.999997
0.999998
0.999997
0.999998
0.999997
0.999998
0.999997
0.999998
0.999997
0.999999
0.999998
0.999999
0.999998
0.999998
0.999997
0.999998
0.999997
0.999998
0.999997
0.999998
0.999997
0.999998
0.999997
0.999998
0.999997
0.999998
0.999997
0.999998
0.999997
0.999995
0.999996
0.999996
1
0.999997
-6.76921e-28
0.00151991
6.21904e-05
0.260823
-5.48936e-06
6.38194e-08
3.10356e-07
-2.09055e-08
-7.39978e-09
-5.6181e-10
3.01511e-11
7.19355e-12
4.01913e-13
-6.63454e-15
-1.86312e-15
-6.87043e-17
6.95008e-19
1.61344e-19
7.03974e-21
8.20218e-23
-6.64736e-24
-3.71263e-25
-7.39885e-27
7.1508e-29
-1.8381e-26
-0.00316912
-0.00459026
-0.00328004
1.42281e-29
2.08689e-10
3.76013e-10
-3.38884e-06
-8.45087e-06
-1.14646e-06
0.532986
-2.23732e-25
-1.08766e-23
-2.96739e-23
-2.63801e-21
1.5437e-21
-2.41354e-19
-1.50919e-19
8.15112e-17
4.65285e-16
-5.26795e-15
-2.69892e-14
-7.78387e-14
9.77546e-15
3.57328e-13
-1.57696e-13
-8.40054e-12
2.67854e-11
7.14264e-12
5.57183e-11
1.7283e-10
1.5379e-10
2.78055e-10
0.0517242
0.189635
0.0225267
-9.5941e-05
-0.000691142
4.38727e-05
1.5642e-05
-6.62002e-06
1.00001
1.00002
0.99995
0.999978
1
0.999905
1.00017
1.00018
0.999976
1.00014
0.999316
0.999782
0.997936
0.997843
1.00202
0.999378
1.01115
1.00819
1.0109
1.01443
0.987894
1.00258
0.931305
0.96098
0.837642
0.880726
0.715897
0.766266
0.582926
0.63645
0.452445
0.501456
0.33707
0.37927
0.238773
0.274116
0.161651
0.187307
0.105813
0.124657
0.06657
0.0791618
0.0405361
0.0487307
0.0237994
0.0290751
0.0138206
0.0168481
0.00778289
0.00958958
0.00432347
0.00536993
0.00230268
0.00289104
0.00119408
0.00150589
0.000626271
0.000790005
0.000311794
0.000399197
0.000152643
0.000195948
7.55007e-05
9.71939e-05
3.57143e-05
4.62499e-05
1.65119e-05
2.16176e-05
7.69387e-06
1.00076e-05
3.50216e-06
4.58409e-06
1.55783e-06
2.06591e-06
6.92963e-07
9.14446e-07
2.99402e-07
3.97721e-07
1.28387e-07
1.7189e-07
5.4648e-08
7.27068e-08
2.31137e-08
3.09208e-08
1.01728e-08
1.34978e-08
4.44248e-09
5.91854e-09
2.19673e-09
2.95358e-09
0.780431
5.40475e-29
0.830481
-8.71397e-28
6.02513e-21
6.41876e-21
4.1458e-05
-2.37262e-27
1.32506e-29
1.02005e-20
6.95444e-07
4.49928e-08
-1.80965e-08
-2.34553e-09
-5.24787e-11
2.01584e-11
1.94203e-12
4.58462e-14
-5.67107e-15
-4.29535e-16
-6.28792e-18
4.84482e-19
3.91122e-20
9.69924e-22
-9.54215e-24
-1.83009e-24
-6.1166e-26
-4.20899e-28
-3.04056e-26
9.57933e-22
7.15693e-22
4.12966e-24
3.01367e-24
1.55242e-25
-1.23708e-23
2.12331e-25
-1.25133e-23
-3.1038e-21
1.36491e-06
-1.6637e-20
7.9774e-19
-1.0552e-17
-2.86613e-16
5.76195e-16
1.36199e-14
4.9271e-14
1.03383e-13
-4.44206e-13
6.74148e-13
-1.29698e-12
7.33233e-12
1.85937e-11
-4.29896e-12
1.26528e-10
1.9182e-10
-2.05362e-08
-5.73501e-15
3.66472e-15
-2.61558e-27
1.4714e-12
1.04859e-09
2.14392e-11
2.2738e-10
6.97073e-11
1.05401e-11
3.42406e-11
-1.112e-11
-1.01335e-13
4.01788e-13
3.45342e-14
-9.58142e-14
-3.24379e-14
-6.65866e-15
5.61426e-16
5.37079e-29
-3.56978e-26
-1.38573e-24
-1.71588e-23
4.72262e-22
2.80735e-20
4.77129e-19
-4.88167e-19
-2.90065e-16
2.50826e-10
1.63489e-10
-6.26283e-12
2.58056e-11
8.00442e-12
-1.50316e-12
8.90318e-13
-5.84685e-13
1.23991e-13
6.25025e-14
1.69827e-14
8.21159e-16
-3.74012e-16
-1.67178e-17
9.97297e-19
-2.03392e-23
-3.16157e-27
-2.45488e-25
-6.17906e-24
4.14832e-24
4.25151e-21
1.32604e-19
1.32225e-18
-3.46708e-17
-1.49076e-15
-1.38561e-14
2.33251e-13
6.24102e-12
4.8273e-11
-3.10589e-10
-7.02663e-09
-4.20995e-08
2.08637e-07
-2.60691e-20
3.44438e-11
-1.91086e-09
-2.11854e-08
8.92669e-07
-3.37254e-25
1.1405e-16
-5.74121e-23
3.78689e-19
-3.29295e-19
8.05037e-05
7.44784e-21
0.994129
1.00614
1.00363
1.00319
1.00653
1.00017
1.00138
0.999571
0.999329
0.999815
0.999478
0.99999
0.999896
1.00002
1.00004
1.00001
1.00004
1
1.00002
1
1.00001
1
1.00001
1
1.00001
1
1.00001
1
1.00001
1
1.00001
1
1.00001
1.00001
1.00001
1.00001
1.00001
1.00001
1.00001
1
1.00001
1
1.00001
1
1.00001
1
1.00001
1
1.00001
1
1.00001
1
1.00001
1
1.00001
1
1.00001
1
1.00001
1
1.00001
1
1.00001
1
1.00001
1
1.00001
1
1.00001
1
1.00001
1
1.00001
1
1.00001
1
1.00001
1.00001
1.00001
1.00001
1.00001
1.00001
1.00002
1.00001
1.00001
1.00001
1.00002
1.00002
1.00001
1.00002
1.07123e-21
2.58282e-12
1.47583e-16
1.50856e-09
-2.10024e-25
-9.22537e-20
5.36002e-15
7.55486e-07
3.32088e-07
1.4299e-06
8.99372e-08
-6.83982e-09
-1.88489e-09
3.82694e-10
-1.15036e-10
6.14963e-10
4.15217e-12
6.1054e-12
-4.9186e-27
2.52679e-13
5.1408e-14
1.9214e-13
2.95303e-14
4.23346e-10
-5.30006e-16
-4.07825e-17
-8.08178e-19
3.32476e-20
2.74424e-21
8.78645e-23
-2.23893e-25
-1.04486e-25
-3.4045e-06
-1.00128e-06
-5.5545e-10
-4.20454e-10
3.45798e-25
-3.4903e-25
1.80436e-20
3.94491e-20
-1.26495e-19
-2.2132e-23
-4.51272e-19
-3.36663e-21
-3.8508e-21
5.42801e-21
4.49233e-24
-2.49841e-23
0.000172695
0.000194016
1.61533e-18
3.51576e-19
2.407e-23
1.42347e-21
-1.67598e-17
-2.68353e-17
2.05125e-16
1.11958e-15
-8.28289e-15
-4.63529e-14
-1.5508e-13
-6.24369e-14
9.69269e-13
-8.05597e-13
-1.64096e-11
5.86147e-11
1.15922e-11
1.51856e-10
3.04861e-10
5.04636e-10
3.59301e-07
3.16165e-07
0.999974
0.999985
0.999944
0.999903
1.00015
1.00015
1.00006
1.00017
0.999648
1.00002
0.997964
0.997991
1.00113
0.998759
1.00939
1.00662
1.01098
1.01365
0.99291
1.00622
0.94281
0.97014
0.856489
0.896509
0.738291
0.788678
0.605891
0.658693
0.476165
0.526589
0.356808
0.401788
0.254447
0.290462
0.174062
0.200946
0.114499
0.134485
0.0719682
0.0855227
0.0442376
0.0530052
0.0263861
0.032081
0.0152692
0.0186025
0.00863005
0.0106703
0.00479182
0.00593938
0.00259315
0.00324472
0.00135281
0.00171382
0.000694849
0.000875656
0.000352327
0.000448146
0.000174673
0.000224035
8.51085e-05
0.000109364
4.0612e-05
5.25271e-05
1.89581e-05
2.47979e-05
8.63082e-06
1.1282e-05
3.96014e-06
5.18249e-06
1.80648e-06
2.38394e-06
7.96175e-07
1.05417e-06
3.47712e-07
4.63856e-07
1.48211e-07
1.98678e-07
6.35188e-08
8.48658e-08
2.66709e-08
3.59314e-08
1.15635e-08
1.53281e-08
5.37287e-09
7.00914e-09
-9.39315e-12
-6.47153e-11
2.7686e-12
4.53887e-10
7.61255e-10
6.29295e-24
-2.09799e-27
2.54412e-12
8.993e-13
-0.00209039
-6.25213e-27
0.925579
9.26922e-07
1.81643e-09
-3.37846e-27
8.37573e-16
-6.60753e-16
5.80986e-10
-1.6886e-09
4.75505e-08
4.72545e-09
-9.50636e-09
-4.57295e-09
7.52754e-13
-1.26156e-15
-1.77038e-16
-6.86524e-18
1.4639e-21
1.18007e-20
5.46799e-22
8.7742e-24
-3.43899e-25
-1.94577e-26
0.00947136
6.34604e-10
-9.97212e-06
-1.06714e-05
-7.4447e-16
-5.61438e-16
0.95957
-3.32005e-23
-3.77135e-19
2.98641e-14
2.47961e-14
1.86806e-16
-5.78968e-14
4.86786e-16
1.03837e-13
2.33151e-13
-9.10003e-13
1.27167e-12
-4.11728e-12
2.24057e-11
3.50564e-11
1.6982e-12
3.95483e-10
0.0767326
0.0425122
2.96769e-09
2.44194e-24
1.41887e-06
3.01393e-05
-1.83463e-05
1.88503e-10
1.73748e-11
7.53712e-11
-2.19822e-11
-7.91569e-13
1.12164e-12
4.67004e-25
-3.22695e-25
6.95504e-13
4.88796e-11
2.55459e-11
-0.00337911
0.000562471
-0.00375595
-4.95413e-12
0.684452
1.72859e-12
-1.19795e-12
2.81225e-13
-8.06435e-25
4.86132e-23
1.97628e-21
3.43804e-20
-2.76858e-19
-2.77868e-17
-1.02143e-08
-2.16706e-26
-0.000218709
-0.000988588
0.000207712
-5.51214e-23
0.786929
-1.47332e-26
-5.10784e-16
3.61018e-22
9.62045e-21
-7.92751e-26
6.53722e-20
-4.91737e-09
-4.01507e-18
-1.43781e-16
-3.5446e-26
1.3547e-15
1.2771e-13
1.96566e-18
7.11442e-24
-5.2505e-19
-1.02795e-14
-2.7117e-14
-1.93913e-13
0.322933
-1.01071e-12
1.00911
1.00855
1.01707
1.00224
1.00744
0.999808
1.00082
0.999665
0.9994
0.999905
0.999689
1.00002
0.999962
1.00003
1.00003
1.00001
1.00002
1.00001
1
1.00001
0.999996
1.00001
0.999997
1.00001
0.999997
1.00001
0.999998
1.00001
0.999999
1.00001
0.999998
1.00001
0.999998
1.00001
0.999999
1.00001
0.999999
1.00001
1
1.00001
0.999999
1.00001
0.999998
1.00001
0.999999
1.00001
0.999999
1.00001
1
1.00001
1
1.00001
0.999999
1.00001
0.999999
1.00001
1
1.00001
0.999999
1.00001
0.999999
1.00001
1
1.00001
1
1.00001
1
1.00001
0.999999
1.00001
1
1.00001
1
1.00001
0.999998
1.00001
0.999997
1.00001
0.999995
1.00001
0.999994
1
0.999993
0.999992
0.999975
0.999982
-3.25276e-06
-8.01359e-27
1.97354e-13
3.54813e-23
-1.16245e-14
-7.64014e-23
9.09856e-08
-1.24122e-17
1.33747e-09
5.94476e-25
-1.45148e-11
-7.81104e-12
2.38197e-15
4.72566e-15
-1.1084e-11
6.49724e-22
9.10923e-10
1.88347e-26
-4.68616e-17
-3.95994e-17
-3.66514e-17
7.20922e-10
-6.33926e-20
1.66249e-21
1.71908e-21
1.7181e-22
1.2385e-22
3.9925e-11
-1.10556e-15
2.86374e-15
-8.65953e-10
1.08305e-09
-2.10742e-25
-4.64069e-19
0.000166985
-1.32689e-18
1.6921e-21
2.4476e-14
1.75649e-14
0.873027
-2.96105e-13
-8.6704e-14
2.42247e-13
0.21179
5.52929e-24
2.98875e-24
4.99133e-13
-2.78869e-13
7.88585e-25
1.04981e-24
-1.38054e-25
2.46942e-12
-2.88143e-12
-1.3977e-11
6.16256e-11
6.30488e-11
2.08664e-11
4.60409e-11
7.17408e-10
5.32873e-07
-4.42556e-23
-1.28449e-22
0.999923
0.999923
1.00018
1.00012
1.00014
1.0002
0.999896
1.00022
0.997961
0.998288
1.00013
0.997951
1.00776
1.00468
1.01148
1.0128
0.998919
1.01038
0.95559
0.98049
0.874739
0.91411
0.76042
0.811902
0.63177
0.685352
0.503152
0.556443
0.379385
0.42769
0.272036
0.311042
0.187087
0.217216
0.123298
0.145264
0.078512
0.0934452
0.0487379
0.0587021
0.0290504
0.0354391
0.0170011
0.0207817
0.00969924
0.0120207
0.00538201
0.00668377
0.00295735
0.00370169
0.00153497
0.0019669
0.000770493
0.000985516
0.000400446
0.000511504
0.000198325
0.000256645
9.64506e-05
0.000124792
4.66793e-05
6.09186e-05
2.15191e-05
2.84155e-05
9.91523e-06
1.3039e-05
4.59488e-06
6.05217e-06
2.07939e-06
2.75876e-06
9.3801e-07
1.24574e-06
4.12659e-07
5.53451e-07
1.75973e-07
2.37616e-07
7.604e-08
1.02201e-07
3.20609e-08
4.35522e-08
1.35318e-08
1.82048e-08
5.83922e-09
7.67726e-09
-1.12048e-15
-1.12349e-15
-1.44529e-14
8.50933e-10
1.15568e-09
1.19582e-09
2.2296e-12
-3.28989e-12
-1.04083e-05
-1.04072e-05
-5.15474e-19
-3.11842e-19
4.00094e-10
9.49013e-10
5.19814e-24
7.92011e-24
-5.1326e-23
-1.52275e-09
-1.68337e-09
-1.81525e-09
2.82196e-07
6.5951e-07
2.64365e-07
5.18325e-16
2.8031e-15
1.50578e-16
-1.53117e-26
2.35001e-23
0.000383373
0.000198228
8.7977e-08
2.34758e-09
-2.74794e-20
-2.09782e-21
3.74948e-09
-8.26395e-17
3.12334e-12
5.15936e-13
1.28633e-09
5.27603e-22
2.69824e-13
-7.32047e-27
1.8937e-08
5.07107e-10
-2.87126e-18
6.99144e-08
1.9649e-21
7.57594e-07
6.554e-13
3.01525e-13
1.01542e-08
-1.99835e-18
3.97614e-09
-1.58012e-06
-9.69843e-18
-8.02993e-10
-3.03709e-10
-7.64408e-06
-1.95755e-05
-2.92124e-19
-6.26215e-19
0.975014
3.09213e-18
0.658389
-3.3608e-19
2.06781e-22
2.22146e-22
4.24315e-14
2.57384e-16
-1.43038e-15
5.02658e-14
0.739488
-1.06331e-13
3.05943e-11
1.00093
-3.18277e-13
-1.77557e-12
0.0211122
-2.98728e-11
1.25901e-10
-7.93242e-11
-2.45687e-10
-5.59161e-11
5.66716e-20
-4.14894e-19
6.10888e-13
2.02684e-25
6.09518e-21
1.03269e-19
-2.35759e-12
-0.0011518
-0.000198107
9.61123e-14
7.48894e-14
-0.00506619
-0.0038383
-4.13648e-17
-2.43734e-17
-3.94e-13
0.917653
3.78404e-18
2.25333e-21
8.94498e-11
7.31034e-11
2.94153e-12
-4.05692e-11
1.6303e-10
2.88648e-21
-9.44571e-06
-6.6294e-13
1.00925
1.00426
1.00992
1.00047
1.00283
0.999588
0.999762
0.999726
0.999452
0.999914
0.999754
0.999973
0.999931
0.99997
0.999958
0.999957
0.999939
0.999952
0.999924
0.99995
0.999919
0.999949
0.999916
0.999949
0.999917
0.999948
0.999916
0.999949
0.999915
0.999948
0.999915
0.999951
0.999918
0.999947
0.999916
0.999947
0.999915
0.999949
0.999918
0.999949
0.999916
0.999949
0.999917
0.999949
0.999914
0.999948
0.999915
0.99995
0.999916
0.99995
0.999917
0.99995
0.999917
0.999949
0.999917
0.999949
0.999915
0.999949
0.999917
0.999949
0.999915
0.999946
0.999914
0.999948
0.999914
0.999949
0.999916
0.999947
0.999915
0.999944
0.999914
0.999943
0.999911
0.999941
0.999909
0.999951
0.999905
0.999957
0.999907
0.705217
3.73103e-09
-1.85427e-19
4.72443e-15
-3.89866e-21
2.67031e-17
-2.88111e-18
1.97071e-09
3.95426e-09
-3.36761e-12
6.04702e-18
6.01289e-08
-8.68772e-12
4.29333e-23
1.03255e-09
3.38046e-12
1.58944e-07
1.49584e-07
0.323259
9.94686e-23
1.09285e-22
7.05155e-14
2.64213e-10
3.27483e-16
1.70892e-16
-1.6541e-22
1.15375e-22
-4.96245e-11
-3.98426e-11
-2.90477e-11
-3.18632e-20
-1.85652e-20
-4.21415e-21
7.01488e-22
3.87293e-21
4.46893e-11
-0.00929397
0.00117868
2.66301e-24
1.08657e-23
3.55086e-23
7.88129e-24
-9.63682e-13
-4.50108e-12
-2.79873e-11
-6.7849e-11
0.0676609
1.08434e-12
-9.79845e-13
-4.30985e-21
-0.00541225
0.000582979
1.54455e-22
0.0712059
0.0315661
0.109768
1.64794e-10
3.46432e-10
0.882954
0.720366
-9.16257e-12
-3.54051e-11
-4.47067e-18
-6.19117e-18
1.00017
1.00016
1.00019
1.00003
1.00035
0.998094
0.998687
0.99905
0.997448
1.00559
1.00238
1.01133
1.0112
1.00435
1.01311
0.968277
0.991108
0.894644
0.933242
0.788022
0.839185
0.663664
0.718549
0.53493
0.589689
0.408979
0.460522
0.294576
0.338223
0.203486
0.237163
0.136192
0.160317
0.0874806
0.10446
0.0544472
0.0657506
0.033035
0.0403737
0.0192871
0.0238005
0.0110557
0.013765
0.00619561
0.00774586
0.00339046
0.00428243
0.00179424
0.00229891
0.000914035
0.00117746
0.000468121
0.000601717
0.000233642
0.000303249
0.000114151
0.000148428
5.50269e-05
7.2014e-05
2.57913e-05
3.41627e-05
1.18538e-05
1.57745e-05
5.44716e-06
7.2546e-06
2.51815e-06
3.35e-06
1.14525e-06
1.53426e-06
5.01283e-07
6.77528e-07
2.21049e-07
2.99473e-07
9.47929e-08
1.29677e-07
4.01228e-08
5.54999e-08
1.73464e-08
2.42839e-08
6.87658e-09
5.14948e-05
0.000171227
1.2124e-05
-1.41756e-05
-2.05548e-05
-1.68495e-22
7.97852e-22
-8.46959e-19
-6.32765e-19
1.75193e-10
1.27925e-09
3.72727e-13
-8.24744e-13
3.14188e-14
-1.06102e-11
2.72934e-13
3.96396e-18
2.17809e-09
3.65225e-24
1.98133e-10
1.9562e-09
-1.71367e-21
-0.0110184
-0.00773455
2.01677e-23
1.02156e-08
1.97242e-09
1.99684e-09
7.25293e-12
6.0665e-12
0.18927
-1.24172e-19
-5.43821e-12
-1.25882e-12
4.95863e-12
2.55252e-07
3.16801e-07
-2.06643e-15
5.78688e-15
1.56044e-10
1.07572e-10
-1.88562e-13
-1.58874e-13
-8.56749e-19
1.75968e-05
-1.14699e-05
1.98457e-10
-2.61037e-19
-6.01572e-19
7.21052e-18
-2.80181e-06
-5.36254e-15
-5.0056e-15
-2.51517e-18
-3.49826e-18
3.59194e-16
-1.31464e-10
-1.14904e-10
1.00724
0.99224
1.76775e-24
-4.5672e-21
1.30617e-12
-1.33147e-26
4.37389e-25
7.55393e-24
0.2396
6.09146e-11
-8.35571e-06
-4.12386e-21
1.54027e-08
4.84649e-08
9.79597e-09
1.00006
0.999958
-1.46613e-14
-1.96628e-14
8.37571e-14
-1.68862e-18
-1.96041e-07
-1.67004e-06
2.23485e-07
-0.000325282
1.39623e-19
2.46328e-19
-1.13728e-18
2.03319e-15
1.3271e-15
1.67855e-09
-0.00301419
-0.00763133
-0.00187964
7.07106e-14
7.51982e-14
-1.23536e-20
-9.18462e-23
-1.09111e-22
-2.86795e-22
7.30736e-10
-1.81161e-10
4.6015e-13
2.16933e-09
-6.0068e-17
-3.55279e-17
0.926381
2.59562e-09
-1.44592e-20
4.15001e-10
1.00648
1.00157
1.00509
0.999771
1.00061
0.999623
0.999532
0.99985
0.999697
0.999981
0.999981
1.00001
1.00008
0.999995
1.00008
0.999985
1.00006
0.999975
1.00005
0.999975
1.00004
0.999975
1.00004
0.999974
1.00004
0.999973
1.00004
0.999975
1.00004
0.99998
1.00005
0.999977
1.00005
0.999979
1.00005
0.999978
1.00005
0.999982
1.00005
0.999981
1.00006
0.999982
1.00005
0.999978
1.00005
0.999978
1.00005
0.999977
1.00005
0.999976
1.00004
0.999971
1.00004
0.999974
1.00004
0.999979
1.00005
0.999983
1.00005
0.999977
1.00005
0.999979
1.00005
0.999979
1.00005
0.999976
1.00005
0.999977
1.00005
0.999983
1.00006
0.999981
1.00008
0.999965
1.00005
1.00007
0.461914
0.99996
1.217e-06
1.39355e-11
5.80875e-10
2.68214e-09
-1.23364e-20
1.76221e-10
1.53952e-18
9.22388e-15
5.24528e-21
-5.69533e-12
1.70658e-11
0.441635
-1.89164e-19
-4.65776e-21
-2.85768e-21
-3.47289e-20
-4.37153e-11
1.25824e-10
6.95749e-10
6.83849e-16
1.00464e-07
-6.14733e-18
3.67451e-09
-5.29953e-15
-5.33636e-13
9.8151e-14
-3.00276e-22
0.000185891
0.000249385
0.480211
-2.2686e-21
-1.34932e-21
0.980014
-5.19764e-20
-3.86805e-20
6.79859e-13
0.145555
4.2267e-16
6.06686e-16
-2.6389e-15
2.67554e-14
6.84694e-15
0.380163
4.45453e-09
3.60436e-15
-2.54449e-13
8.39527e-13
1.00014
1.00917
1.01152
1.0015
2.1188e-12
-2.58736e-12
-7.70067e-12
-5.97857e-11
5.10984e-10
0.811406
0.898605
0.516601
5.44787e-10
2.64732e-10
-2.81127e-10
-4.56214e-10
-2.94557e-10
-6.24418e-11
-8.69386e-11
2.05726e-17
1.08556e-17
1.00021
0.998678
0.999476
0.99841
0.997455
1.00329
1.00037
1.01031
1.00886
1.00858
1.01461
0.980289
1.00051
0.917111
0.951534
0.819948
0.868254
0.6989
0.755658
0.571285
0.626775
0.443398
0.497745
0.322487
0.36926
0.226358
0.262162
0.152727
0.180194
0.0984161
0.117659
0.0624057
0.0751428
0.0382769
0.0467534
0.0224912
0.0277147
0.0131116
0.0162853
0.00730984
0.00920167
0.0040176
0.00504989
0.0021838
0.00278247
0.00110716
0.00143882
0.000563354
0.000724449
0.000284728
0.00037114
0.000137508
0.000181097
6.64898e-05
8.73925e-05
3.19228e-05
4.24364e-05
1.46761e-05
1.95912e-05
6.88116e-06
9.15592e-06
3.18691e-06
4.26025e-06
1.43337e-06
1.91611e-06
6.47261e-07
8.78863e-07
2.82594e-07
3.8575e-07
1.26286e-07
1.71876e-07
5.63862e-08
7.80994e-08
2.54207e-08
3.59538e-08
6.15894e-09
7.23374e-09
1.08233e-08
1.94166e-21
6.9859e-21
-3.1926e-19
-4.42421e-19
2.46895e-09
4.78985e-09
-1.31548e-12
2.54687e-12
-2.56855e-11
-8.17419e-11
8.13145e-09
-8.67094e-21
-1.51839e-05
-1.24978e-05
1.14965e-14
6.7805e-15
1.63435e-10
5.87963e-12
3.13527e-12
-4.03688e-11
-1.5354e-11
3.12103e-09
-9.3453e-14
-3.50813e-14
6.33126e-20
2.6672e-15
2.14744e-15
-1.64301e-19
0.227187
-1.47935e-22
-1.68919e-23
-1.59717e-12
8.61064e-05
4.65155e-05
-2.18477e-07
3.64984e-08
9.05658e-15
-0.00125572
4.18555e-09
1.02041e-17
-3.4002e-18
5.55259e-09
5.98757e-09
1.35547e-16
-2.92889e-12
7.23459e-10
-6.24463e-11
-8.80663e-11
-1.88241e-22
-6.06369e-24
-2.29612e-22
2.99352e-08
2.4477e-08
1.00049
5.96559e-19
1.23335e-17
0.0898362
0.0176124
1.05143e-13
-2.93253e-13
1.58563e-08
0.000138604
0.000307374
9.01236e-05
-1.8988e-18
4.25114e-19
3.0088e-19
4.85978e-19
-2.54153e-18
-0.00492923
-0.00381121
-6.73414e-17
-3.62139e-17
1.4871e-07
7.65864e-08
-3.06967e-22
-5.34543e-22
2.3776e-21
-1.48564e-05
-6.71172e-06
-3.10126e-11
4.86728e-16
-1.45084e-14
-1.28151e-14
8.53403e-17
-1.07212e-20
5.04639e-16
1.00329
1.00051
1.00229
0.999824
1.00007
0.99997
0.999817
1.00017
1.00011
1.00026
1.00034
1.00027
1.0004
1.00028
1.00041
1.00027
1.00043
1.00027
1.00041
1.00026
1.0004
1.00027
1.00041
1.00026
1.0004
1.00027
1.0004
1.00027
1.00041
1.00026
1.0004
1.00027
1.0004
1.00026
1.00041
1.00026
1.00038
1.00025
1.0004
1.00027
1.00039
1.00026
1.0004
1.00027
1.00041
1.00026
1.0004
1.00027
1.0004
1.00027
1.00042
1.00027
1.00041
1.00026
1.0004
1.00027
1.00041
1.00026
1.00039
1.00026
1.0004
1.00028
1.00041
1.00029
1.00041
1.00032
1.00042
1.00033
1.00046
1.00379e-20
-2.6383e-11
1.21034e-19
8.61785e-18
4.42867e-05
1.14439e-08
1.25512e-12
1.74599e-09
-2.48548e-12
-0.00037428
0.000161841
8.98291e-09
1.83904e-08
9.62483e-09
1.26992e-08
1.46042e-08
-1.18555e-20
-1.88506e-20
2.89481e-10
-6.83026e-12
1.10785e-09
4.47382e-10
1.03512e-09
1.46524e-09
1.8019e-25
0.999485
4.25859e-17
2.97239e-17
0.998186
0.997868
1.00124
0.998918
1.00892
1.00634
1.01197
1.01476
0.992185
1.00731
0.938686
0.969868
0.851737
0.896683
0.739803
0.794836
0.610706
0.668016
0.481711
0.535756
0.355131
0.405887
0.250484
0.290458
0.172408
0.202025
0.112549
0.134698
0.0717162
0.0861497
0.0448223
0.0542594
0.0264911
0.0327903
0.015443
0.0191331
0.008822
0.0110809
0.00477487
0.00605407
0.00263321
0.00332298
0.00136638
0.00177368
0.000681553
0.000887055
0.000348187
0.000450215
0.000172506
0.000226761
8.24341e-05
0.000108584
4.05781e-05
5.31969e-05
1.87608e-05
2.51914e-05
8.68191e-06
1.16022e-05
4.05423e-06
5.42995e-06
1.80006e-06
2.43439e-06
8.26452e-07
1.1032e-06
3.72856e-07
5.02942e-07
1.68111e-07
2.26365e-07
8.16421e-08
1.09482e-07
4.10658e-08
2.75416e-08
5.87775e-08
-1.53184e-14
1.21588e-13
-1.90714e-06
-5.63751e-06
-1.14588e-06
1.37175e-18
7.58249e-19
8.0639e-09
1.17854e-08
4.16333e-12
-7.77704e-12
-0.00743482
-0.00938135
-1.33203e-10
-7.7794e-11
3.8795e-10
2.06812e-09
5.75492e-09
1.70175e-09
3.19748e-11
1.48026e-12
9.48856e-25
-5.40649e-24
-2.13175e-24
0.800158
6.71181e-15
1.00675
-5.11026e-22
-4.83602e-21
1.00033
1.00759
1.00829
-1.22176e-11
-3.95874e-12
4.79951e-10
-2.1416e-14
1.00005
-3.39917e-13
3.34963e-20
1.36854e-08
4.88762e-16
9.03255e-16
1.25902e-09
1.00053
1.01137
-2.30261e-13
-6.03903e-14
-0.00302953
-2.97899e-14
1.09723e-14
0.00018187
0.000146562
-1.33481e-06
-2.73721e-17
3.67065e-18
-1.30348e-11
-8.95308e-12
-3.51365e-21
-0.00163156
-7.88198e-18
-7.21874e-17
-3.02719e-12
-2.54057e-12
1.76318e-16
-9.33096e-21
-3.49942e-23
5.87288e-09
-3.76979e-22
1.86301e-10
7.52742e-08
0.96705
0.990105
0.880807
2.71167e-08
2.87281e-08
4.5396e-16
0.406816
0.525834
0.186205
1.76046e-10
2.00138e-12
-3.58903e-15
1.36711e-16
1.75965e-17
2.10295e-17
-1.62222e-18
-3.77541e-13
1.53572e-12
5.6482e-18
1.80957e-05
-4.30077e-06
5.69098e-19
0.000251649
0.0002402
5.0872e-12
-7.5165e-13
-4.49904e-13
7.29611e-09
9.66946e-16
6.82473e-16
-0.00711542
-0.00697928
-6.60291e-11
5.24682e-21
1.36901e-20
9.42962e-11
7.17866e-12
-4.60508e-22
-9.07345e-22
6.51698e-21
3.8863e-11
1.66618e-14
-3.38726e-14
-9.35533e-07
-2.37741e-07
-7.95447e-11
-2.60983e-21
1.04168e-08
-1.74266e-10
2.31302e-09
-6.62298e-15
-3.52725e-14
-2.34868e-15
1.00556
-1.50613e-14
-8.88967e-15
1.00147
1.00407
0.999884
1.00039
0.999736
0.999388
0.999959
0.999496
1.00013
0.999778
1.00017
0.999917
1.00018
0.999937
1.0002
0.999967
1.00021
1
1.0002
1
1.00022
1.00001
1.0002
1.00001
1.00021
1
1.00019
0.999999
1.00019
0.999995
1.00022
1.00001
1.00021
1.00002
1.00022
0.99999
1.00019
1
1.00019
0.999978
1.0002
0.999986
1.00021
0.999995
1.0002
0.999996
1.00019
0.999964
1.0002
0.999971
1.00021
0.999999
1.0002
0.999985
1.00022
1
1.00021
1.00001
1.00022
0.999993
1.00021
1
1.0002
0.999968
1.00019
0.999781
0.999918
3.44418e-17
-2.50401e-10
1.00198
4.86531e-19
4.70449e-10
0.000422556
8.97433e-19
1.45486e-15
1.06478e-15
-3.81853e-20
-2.89054e-22
6.20103e-17
7.37368e-17
1.4077e-13
-4.46489e-13
-4.468e-12
-8.19161e-22
-1.22112e-11
-1.54552e-10
-3.33747e-10
1.71395e-08
-6.80365e-20
9.65777e-21
4.24939e-21
-5.12101e-22
1.24217e-08
-1.0387e-07
3.85594e-08
2.56812e-18
1.74763e-18
-4.55196e-15
2.12731e-09
7.41874e-10
1.32554e-08
2.24037e-08
0.998188
0.99847
-5.85318e-18
-4.34543e-18
0.999828
0.998241
1.00701
1.00426
1.01234
1.01304
0.999282
1.01002
0.957331
0.982132
0.881241
0.920747
0.777932
0.826583
0.652451
0.70791
0.517036
0.571144
0.389189
0.439159
0.280095
0.321203
0.193876
0.224888
0.129566
0.15295
0.0828977
0.0992184
0.0516687
0.0622982
0.031323
0.0382805
0.0184567
0.0226739
0.0105602
0.0130872
0.00582662
0.00734087
0.00315942
0.00398264
0.00166472
0.00212364
0.00085969
0.00110744
0.000427545
0.000554279
0.000213903
0.000276743
0.000104923
0.000137628
5.00849e-05
6.5639e-05
2.39315e-05
3.15767e-05
1.1312e-05
1.50043e-05
5.1891e-06
6.8773e-06
2.36196e-06
3.17047e-06
1.06368e-06
1.43102e-06
4.79542e-07
6.44217e-07
2.20901e-07
2.93794e-07
1.07851e-07
1.37428e-07
-2.52158e-16
-3.45907e-17
-1.58166e-11
-1.84232e-11
-0.00509698
-0.00950913
1.70306e-10
2.89854e-09
4.80368e-09
1.68582e-08
1.00526e-09
-2.75397e-11
-1.93456e-10
1.01005
1.01014
8.11758e-19
1.61609e-13
1.5381e-14
-1.62576e-08
-4.29101e-21
4.80689e-10
1.67505e-10
-6.10725e-14
9.8193e-15
1.01004
7.06879e-08
-2.77626e-12
-3.28135e-15
-1.73524e-15
-0.0019994
-6.02079e-15
-7.88355e-15
1.9974e-14
-1.063e-12
-3.81939e-06
1.21073e-08
-1.42512e-12
1.09318e-17
-0.000343646
2.13789e-12
-5.33694e-12
1.24223e-15
-2.26519e-22
-2.58177e-06
2.97844e-17
8.17027e-20
0.977393
0.948444
1.24689e-09
0.415682
2.34237e-08
3.52639e-08
3.82402e-18
8.12189e-11
6.49573e-11
2.48908e-08
1.87332e-08
-7.03333e-20
-1.04377e-19
1.2417e-18
0.0315311
6.04844e-09
-2.76862e-11
-1.06456e-17
1.93184e-15
2.90648e-17
7.81525e-12
3.08556e-19
7.46657e-10
0.0094397
0.775599
0.856497
0.520696
8.24859e-18
0.120656
1.06781e-09
1.15844e-17
3.46802e-17
2.03091e-08
2.7095e-08
3.10488e-08
0.000286419
0.000358348
-1.34953e-05
-9.07358e-06
-1.19105e-12
0.000131657
2.01677e-20
5.75949e-21
-4.4515e-06
-0.00514415
2.84678e-09
-0.0083721
-0.00925527
-2.4777e-10
7.07973e-09
1.57887e-09
-9.07794e-12
-9.60332e-12
0.000300269
0.00030773
4.27706e-09
-5.09567e-06
-5.5673e-06
4.77768e-20
-1.85157e-11
9.57503e-12
1.68909e-09
1.34343e-09
-1.10534e-12
-4.46438e-13
1.92114e-13
1.76311e-13
1.00788
-9.9104e-06
9.41103e-10
1.00235
1.00614
0.999469
1.00058
0.998786
0.998446
0.998898
0.998139
0.999072
0.998383
0.999121
0.99853
0.999179
0.998578
0.999226
0.998643
0.999222
0.99867
0.999189
0.99861
0.999239
0.998654
0.999221
0.998664
0.999233
0.998669
0.999233
0.998692
0.999259
0.99869
0.999255
0.998699
0.999187
0.998678
0.999221
0.998636
0.99922
0.99869
0.999228
0.998681
0.999216
0.99866
0.999222
0.998674
0.999192
0.998672
0.999207
0.998649
0.999231
0.998667
0.999207
0.998687
0.999204
0.998639
0.999257
0.998715
0.999216
0.998733
0.999187
0.998708
0.999051
0.998698
0.998834
0.99838
0.998529
3.22235e-09
3.9639e-09
0.203968
0.000159988
-1.3991e-14
-1.09942e-14
1.77241e-20
1.35399e-20
-1.88523e-16
-2.27761e-06
-8.22356e-07
1.50919e-11
2.09157e-18
-5.05798e-13
2.56399e-12
-1.11209e-10
4.57704e-18
4.6278e-18
5.63032e-08
-9.10962e-18
-1.21202e-17
1.31037e-17
1.52184e-17
-2.51809e-19
5.37468e-20
3.89527e-20
-1.99306e-12
3.48302e-10
1.02869e-10
7.85066e-10
4.68848e-09
3.71103e-08
0.000102105
2.9256e-05
1.32512e-10
-1.18774e-10
-4.20057e-10
1.00357e-09
1.86229e-19
1.36444e-19
0.998947
0.997927
1.00547
1.00251