/*--------------------------------*- C++ -*----------------------------------*\
  =========                 |
  \\      /  F ield         | OpenFOAM: The Open Source CFD Toolbox
   \\    /   O peration     | Website:  https://openfoam.org
    \\  /    A nd           | Version:  7
     \\/     M anipulation  |
\*---------------------------------------------------------------------------*/
FoamFile
{
    version     2.0;
    format      ascii;
    class       volScalarField;
    location    "0.02";
    object      T;
}
// * * * * * * * * * * * * * * * * * * * * * * * * * * * * * * * * * * * * * //

dimensions      [0 0 0 1 0 0 0];

internalField   nonuniform List<scalar> 
46572
(
0
0
0
0
0
0
0
0
0
0
0
0
0
0
0
0
0
0
0
0
0
0
0
0
0
0
0
0
0
0
0
0
0
0
0
0
0
0
0
0
0
0
0
0
0
0
0
0
0
0
0
0
0
0
0
0
0
0
0
0
0
0
0
0
0
0
0
0
0
0
0
0
0
0
0
0
0
0
0
0
0
0
0
0
0
0
0
0
0
0
0
0
0
0
0
0
0
0
0
0
0
0
0
0
0
0
0
0
0
0
0
0
0
0
0
0
0
0
0
0
0
0
0
0
0
0
0
0
0
0
0
0
0
0
0
0
0
0
0
0
0
0
0
0
0
0
0
0
0
0
0
0
0
0
0
0
0
0
0
0
0
0
0
0
0
0
0
0
0
0
0
0
0
0
0
0
0
0
0
0
0
0
0
0
0
0
0
0
0
0
0
0
0
0
0
0
0
0
0
0
0
0
0
0
0
0
0
0
0
0
0
0
0
0
0
0
0
0
0
0
0
0
0
0
0
0
0
0
0
0
0
0
0
0
0
0
0
0
0
0
0
0
0
0
0
0
0
0
0
0
0
0
0
0
0
0
0
0
0
0
0
0
0
0
0
0
0
0
0
0
0
0
0
0
0
0
0
0
0
0
0
0
0
0
0
0
0
0
0
0
0
0
0
0
0
0
0
0
0
0
0
0
0
0
0
0
0
0
0
0
0
0
0
0
0
0
0
0
0
0
0
0
0
0
0
0
0
0
0
0
0
0
0
0
0
0
0
0
0
0
0
0
0
0
0
0
0
0
0
0
0
0
0
0
0
0
0
0
0
0
0
0
0
0
0
0
0
0
0
0
0
0
0
0
0
0
0
0
0
0
0
0
0
0
0
0
0
0
0
0
0
0
0
0
0
0
0
0
0
0
0
0
0
0
0
0
0
0
0
0
0
0
0
0
0
0
0
0
0
0
0
0
0
0
0
0
0
0
0
0
0
0
0
0
0
0
0
0
0
0
0
0
0
0
0
0
0
0
0
0
0
0
0
0
0
0
0
0
0
0
0
0
0
0
0
0
0
0
0
0
0
0
0
0
0
0
0
0
0
0
0
0
0
0
0
0
0
0
0
0
0
0
0
0
0
0
0
0
0
0
0
0
0
0
0
0
0
0
0
0
0
0
0
0
0
0
0
0
0
0
0
0
0
0
0
0
0
0
0
0
0
0
0
0
0
0
0
0
0
0
0
0
0
0
0
0
0
0
0
0
0
0
0
0
0
0
0
0
0
0
0
0
0
0
0
0
0
0
0
0
0
0
0
0
0
0
0
0
0
0
0
0
0
0
0
0
0
0
0
0
0
0
0
0
0
0
0
0
0
0
0
0
0
0
0
0
0
0
0
0
0
0
0
0
0
0
0
0
0
0
0
0
0
0
0
0
0
-0.0603125
-0.0247649
-0.00989617
-0.00403374
-0.00165476
-0.000666313
-0.000265066
-0.000107377
-4.10387e-05
-1.45011e-05
-4.55468e-06
-1.10292e-06
-1.15344e-07
-1.9828e-10
-1.84399e-15
-6.74516e-20
-3.18089e-26
-7.22858e-33
-5.92049e-38
-9.11922e-46
-1.30688e-54
-1.20018e-61
-2.38423e-65
-1.88516e-74
-6.49466e-82
-1.49829e-82
-2.65785e-91
-1.27299e-101
-9.6167e-112
-1.02641e-121
-1.94053e-132
0
-1.16518e-131
-2.70511e-131
-1.34496e-144
-5.37137e-181
0
0
0
-9.76477e-187
-1.45658e-195
-2.21628e-212
0
0
0
0
0
0
0
0
0
0
0
0
0
0
0
0
0
0
0
0
0
0
0
0
0
0
0
0
0
0
0
0
0
0
0
0
0
0
0
0.129848
0.107646
0.100164
0.089983
0.0836061
0.0830255
0.0820584
0.0848408
0.0836562
0.0785502
0.0641265
-0.0753906
-0.248594
-0.269271
-0.276006
-0.267485
-0.266472
-0.26974
-0.271206
-0.270377
-0.27286
-0.264356
0.121447
0.114537
-0.0230852
0.0988789
-0.0401754
0.0942747
-0.0508395
0.087573
-0.0597601
0.0827738
-0.0651843
0.080699
-0.0683745
0.0806186
-0.0702771
0.0780696
-0.0722415
0.0789545
-0.0719607
0.0778812
-0.0733052
0.0759547
-0.0744799
0.0752421
-0.0746198
0.0763197
-0.0745376
0.0776554
-0.074634
0.0761022
-0.0748582
0.0747845
-0.0752457
0.0757836
-0.0744649
0.0784607
-0.0750225
0.0662868
-0.0748143
-0.0579507
-0.0724384
-0.0370687
-0.0463359
-0.0237793
-0.0297241
-0.0150259
-0.0187824
-0.00964768
-0.0120596
-0.00615027
-0.00768784
-0.00391981
-0.00489976
-0.00249785
-0.00312231
-0.00158961
-0.00198702
-0.00101699
-0.00127124
-0.000641753
-0.000802191
-0.000403315
-0.000504144
-0.000258735
-0.000323419
-0.000164746
-0.000205933
-0.000104696
-0.00013087
-6.60569e-05
-8.25712e-05
-4.0258e-05
-5.03225e-05
-2.44393e-05
-3.05491e-05
-1.44037e-05
-1.80046e-05
-8.2789e-06
-1.03486e-05
-4.57366e-06
-5.71707e-06
-2.34002e-06
-2.92503e-06
-1.09812e-06
-1.37265e-06
-4.25823e-07
-5.32279e-07
-1.16914e-07
-1.46142e-07
-1.72188e-08
-2.15236e-08
-7.10216e-11
-8.8777e-11
-8.53839e-14
-1.0673e-13
-5.06751e-17
-6.33439e-17
-3.85646e-20
-4.82057e-20
-1.03628e-23
-1.29535e-23
-5.21004e-27
-6.51255e-27
-1.40024e-30
-1.7503e-30
-1.56179e-34
-1.95224e-34
-1.24699e-38
-1.55874e-38
-5.22486e-42
-6.53108e-42
-1.899e-44
-2.37375e-44
-7.08616e-46
-8.8577e-46
-9.12427e-48
-1.14053e-47
-1.41884e-48
-1.77355e-48
-4.06433e-50
-5.08041e-50
-3.73329e-51
-4.66661e-51
-2.16021e-52
-2.70026e-52
-2.05318e-54
-2.56648e-54
-1.08406e-55
-1.35508e-55
-5.48067e-58
-6.85084e-58
-1.72556e-61
-2.15696e-61
-2.90369e-65
-3.62961e-65
-5.18353e-58
-6.47941e-58
-6.45354e-61
-8.06693e-61
-1.01269e-63
-1.26586e-63
-1.50812e-62
-1.88515e-62
-1.29184e-65
-1.6148e-65
-4.39264e-68
-5.49081e-68
-1.00144e-71
-1.2518e-71
-1.3594e-75
-1.69925e-75
-2.09274e-79
-2.61593e-79
-1.18886e-83
-1.48608e-83
-9.78153e-82
-1.22269e-81
-6.77179e-86
-8.46474e-86
-2.97579e-90
-3.71973e-90
-1.66583e-93
-2.08228e-93
-3.76863e-98
-4.71079e-98
-6.23848e-102
-7.79811e-102
-8.73097e-106
-1.09137e-105
-1.06811e-110
-1.33514e-110
-1.70575e-114
-2.13219e-114
-1.33672e-119
-1.6709e-119
-7.30924e-125
-9.13656e-125
-5.26112e-129
-6.5764e-129
-1.58293e-134
-1.97866e-134
-1.99664e-114
-2.4958e-114
-9.28316e-121
-1.16039e-120
-2.05613e-118
-2.57016e-118
-8.30309e-123
-1.03789e-122
-4.00655e-129
-5.00819e-129
-1.45524e-132
-1.81905e-132
-3.02966e-135
-3.78707e-135
-1.3596e-141
-1.6995e-141
-3.12829e-150
-3.91036e-150
-3.29799e-138
-4.12248e-138
-1.51763e-144
-1.89704e-144
-4.52653e-149
-5.65816e-149
-1.05923e-157
-1.32404e-157
-1.00539e-143
-1.25674e-143
-2.67899e-152
-3.34874e-152
-9.17625e-158
-1.14703e-157
-1.85132e-164
-2.31415e-164
-4.31888e-176
-5.39859e-176
-5.8564e-180
-7.3205e-180
-6.34585e-184
-7.93231e-184
-2.00519e-194
-2.50649e-194
-4.76998e-203
-5.96248e-203
-2.98781e-199
-3.73477e-199
-7.22913e-211
-9.03641e-211
-8.29555e-215
-1.03694e-214
-5.04075e-196
-6.30094e-196
-1.18158e-204
-1.47697e-204
-1.12057e-208
-1.40071e-208
-2.20173e-220
-2.75216e-220
-3.14928e-251
-3.93661e-251
-5.82966e-231
-7.28707e-231
-8.51045e-262
-1.06381e-261
-1.57011e-261
-1.96264e-261
0
0
0
0
0
0
0
0
0
0
0
0
0
0
0
0
0
0
0
0
0
0
0
0
0
0
0
0
0
0
0
0
0
0
0
0
0
0
0
0
0
0
0
0
0
0
0
0
0
0
0
0
0
0
0
0
0
0
0
0
0
0
0
0
0
0
0
0
0
0
0
0
0
0
0
0
0
0
0
0
0
0
0
0
0
0
0
0
0
0
0
0
0
0
0
0
0
0
0
0
0
0
0
0
0
0
0
0
0
0
0
0
0
0
0
0
0
0
0
0
0
0
0
0
0
0
0
0
0
0
0
0
0
0
0
0
0
0
0
0
0
0
0
0
0
0
0
0
0
0
0
0
0
0
-2.8602e-48
-2.11008e-48
-8.27187e-46
-2.03777e-46
-2.90531e-47
-7.21381e-48
-1.55838e-47
-2.51328e-47
-9.61569e-46
-6.74923e-46
-5.58743e-45
-4.13926e-46
-5.09919e-48
-1.70784e-50
-3.25967e-52
-1.1371e-56
-2.71981e-59
-8.3788e-58
-3.19698e-63
-1.07662e-70
-3.26243e-70
-1.79368e-77
-7.53471e-83
-2.37689e-90
-8.74473e-95
-7.07127e-105
-6.65587e-99
-9.6412e-109
-1.05303e-115
-2.07092e-126
-1.02046e-125
-9.23591e-142
-9.23977e-137
-6.39204e-156
-4.79465e-175
-6.53821e-164
-2.60526e-182
-1.61195e-196
0
0
0
-2.56923e-225
-1.24158e-231
0
0
0
0
0
0
0
0
0
0
0
0
0
0
0
0
0
0
0
0
0
0
0
0
0
0
0
0
0
0
0
0
0
0
0
0
0
0
0
0
0
0
0
0
0
0
0
0
0
0
0
0
0
0
0
0
0
0
0
0
0
0
0
0
-0.03842
-0.0157609
-0.00630165
-0.00258577
-0.00103947
-0.000414788
-0.000168666
-6.63116e-05
-2.43082e-05
-8.41115e-06
-2.35246e-06
-4.17411e-07
-1.72791e-08
-8.9727e-13
-4.00894e-17
-7.53258e-23
-3.44815e-29
-9.49798e-37
-1.14945e-41
-4.51094e-50
-6.5893e-57
-3.98587e-61
-8.84513e-70
-5.03187e-77
-1.51031e-77
-4.93499e-88
-6.25754e-96
-2.86013e-105
-2.62288e-115
-9.31818e-126
-5.99943e-140
-9.55064e-126
-1.63464e-125
-2.74369e-141
-7.07182e-150
0
-3.0109e-191
0
0
-4.39315e-169
-2.98027e-199
-6.33468e-216
0
0
0
0
0
0
0
0
0
0
0
0
0
0
0
0
0
0
0
0
0
0
0
0
0
0
0
0
0
0
0
0
0
0
0
0
0
0
0.11854
0.10167
0.0936621
0.0840985
0.084468
0.0862609
0.0849452
0.0855105
0.0845015
-0.077958
-0.276039
-0.272473
-0.27042
-0.265834
-0.268687
-0.270023
-0.27131
-0.272243
-0.268697
0
-0.255965
0
0
0
0
0
0
0
0
0
0
0
0
0
0
0
0
0
0
0
0
0
0
0
0
0
0
0
0
0
0
0
0
0
0
0
0
0
-1.29611e-48
-8.10311e-49
-3.20396e-46
-7.51505e-47
-1.38484e-47
-1.13898e-47
-4.64485e-47
-1.28779e-47
-3.48789e-46
-2.46194e-46
-1.99185e-45
-5.30778e-47
-1.90733e-49
-3.05325e-52
-3.637e-54
-1.36057e-59
-1.36117e-62
-8.3047e-61
-7.5832e-67
-1.1498e-74
-1.01619e-73
-1.26656e-78
-9.31339e-86
-3.83236e-95
-1.05817e-99
-3.37677e-111
-1.18271e-103
-9.85296e-115
-4.58991e-122
-5.43269e-133
-3.42853e-134
-2.15326e-153
-2.74957e-144
-2.01609e-166
-3.63105e-175
-1.10134e-173
-5.12581e-194
0
0
0
-1.30723e-213
0
0
0
0
0
0
0
0
0
0
0
0
0
0
0
0
0
0
0
0
0
0
0
0
0
0
0
0
0
0
0
0
0
0
0
0
0
0
0
0
0
0
0
0
0
0
0
0
0
0
0
0
0
0
0
0
0
-0.0197012
-0.00787707
-0.00323222
-0.00129934
-0.000518485
-0.000210832
-8.28895e-05
-3.03852e-05
-1.05139e-05
-2.94058e-06
-5.21764e-07
-2.15989e-08
-1.12159e-12
-5.01117e-17
-9.41572e-23
-4.31019e-29
-1.18725e-36
-1.43681e-41
-5.63868e-50
-8.23663e-57
-4.98234e-61
-1.10564e-69
-6.28983e-77
-1.88789e-77
-6.16874e-88
-7.82192e-96
-3.57516e-105
-3.2786e-115
-1.16477e-125
-7.49928e-140
-1.19383e-125
-2.0433e-125
-3.42961e-141
-8.83978e-150
0
-3.76362e-191
0
0
-5.49144e-169
-3.72534e-199
-7.91834e-216
0
0
0
0
0
0
0
0
0
0
0
0
0
0
0
0
0
0
0
0
0
0
0
0
0
0
0
0
0
0
0
0
0
0
0
0
0
-0.0560921
-0.0698102
-0.0781368
-0.0781902
-0.0788829
-0.0800581
-0.0806633
-0.0811224
0
0
0
0
0
0
0
0
0
0
0
0
0
0
0
0
0
0
0
0
0
0
0
0
0
0
0
0
0
0
0
0
0
0
0
0
0
0
0
0
0
0
0
-1.62014e-48
-1.01289e-48
-4.00495e-46
-9.39381e-47
-1.73105e-47
-1.42373e-47
-5.80606e-47
-1.60974e-47
-4.35986e-46
-3.07742e-46
-2.48981e-45
-6.63472e-47
-2.38416e-49
-3.81657e-52
-4.54625e-54
-1.70071e-59
-1.70147e-62
-1.03809e-60
-9.479e-67
-1.43726e-74
-1.27023e-73
-1.5832e-78
-1.16417e-85
-4.79046e-95
-1.32271e-99
-4.22097e-111
-1.47839e-103
-1.23162e-114
-5.73739e-122
-6.79086e-133
-4.28567e-134
-2.69157e-153
-3.43696e-144
-2.52012e-166
-4.53881e-175
-1.37668e-173
-6.40726e-194
0
0
0
-1.63404e-213
0
0
0
0
0
0
0
0
0
0
0
0
0
0
0
0
0
0
0
0
0
0
0
0
0
0
0
0
0
0
0
0
0
0
0
0
0
0
0
0
0
0
0
0
0
0
0
0
0
0
0
0
-0.0309562
-0.0123702
-0.00504218
-0.00206845
-0.000832891
-0.000331332
-0.000134221
-5.12983e-05
-1.81264e-05
-5.69335e-06
-1.37866e-06
-1.4418e-07
-2.4785e-10
-2.30499e-15
-8.43145e-20
-3.97612e-26
-9.03572e-33
-7.40062e-38
-1.1399e-45
-1.63359e-54
-1.50023e-61
-2.98029e-65
-2.35645e-74
-8.11832e-82
-1.87286e-82
-3.32231e-91
-1.59123e-101
-1.20209e-111
-1.28301e-121
-2.42566e-132
0
-1.45648e-131
-3.38138e-131
-1.6812e-144
-6.71421e-181
0
0
0
-1.2206e-186
-1.82072e-195
-2.77036e-212
0
0
0
0
0
0
0
0
0
0
0
0
0
0
0
0
0
0
0
0
0
0
0
0
0
0
0
0
0
0
0
0
0
0
0
0
0
-0.0438176
-0.0626084
-0.0746422
-0.0788901
-0.0795663
-0.0805503
-0.0813351
-0.0806662
-0.0819693
0
0
0
0
0
0
0
0
0
0
0
0
0
0
0
0
0
0
0
0
0
0
0
0
0
0
0
0
0
0
0
0
0
0
0
0
0
0
0
0
0
0
-3.57524e-48
-2.6376e-48
-1.03398e-45
-2.54721e-46
-3.63163e-47
-9.01726e-48
-1.94797e-47
-3.1416e-47
-1.20196e-45
-8.43654e-46
-6.98429e-45
-5.17407e-46
-6.37398e-48
-2.13481e-50
-4.07459e-52
-1.42138e-56
-3.39976e-59
-1.04735e-57
-3.99623e-63
-1.34578e-70
-4.07804e-70
-2.24211e-77
-9.41839e-83
-2.97111e-90
-1.09309e-94
-8.83909e-105
-8.31984e-99
-1.20515e-108
-1.31629e-115
-2.58864e-126
-1.27557e-125
-1.15449e-141
-1.15497e-136
-7.99005e-156
-5.99332e-175
-8.17276e-164
-3.25657e-182
-2.01493e-196
0
0
0
-3.21154e-225
-1.55197e-231
0
0
0
0
0
0
0
0
0
0
0
0
0
0
0
0
0
0
0
0
0
0
0
0
0
0
0
0
0
0
0
0
0
0
-0.048025
-0.0253953
0
0
0
0
0
0
0
0
0
0
0
0
0
0
0
0
0
0
0
0
0
0
0
0
0
0
0
0
0
0
0
0
0
0
0
0
0
0
0
0
0
0
0
0
0
0
0
0
0
0
0
0
0
0
0
0
0
0
0
0
0
0
0
0
0
0
0
0
0
0
0
0
0
0
0
0
0
0
0
0
0
0
0
0
0
0
0
0
0
0
0
0
0
0
0
0
0
0
0
0
0
0
0
0
0
0
0
0
0
0
0
0
0
0
0
0
0
0
0
0
0
0
0
0
0
0
0
0
0
0
0
0
0
0
0
0
0
0
0
0
0
0
0
0
0
0
0
0
0
0
0
0
0
0
0
0
0
0
0
0
0
0
0
0
0
0
0
0
0
0
0
0
0
0
0
0
0
0
0
0
0
0
0
0
0
0
0
0
0
0
0
0
0
0
0
0
0
0
0
0
0
0
0
0
0
0
0
0
0
0
0
0
0
0
0
0
0
0
0
0
0
0
0
0
0
0
0
0
0
0
0
0
0
0
0
0
0
0
0
0
0
0
0
0
0
0
0
0
0
0
0
0
0
0
0
0
0
0
0
0
0
0
0
0
0
0
0
0
0
0
0
0
0
0
0
0
0
0
0
0
0
0
0
0
0
0
0
0
0
0
0
0
0
0
0
0
0
0
0
0
0
0
0
0
0
0
0
0
0
0
0
0
0
0
0
0
0
0
0
0
0
0
0
0
0
0
0
0
0
0
0
0
0
0
0
0
0
0
0
0
0
0
0
0
0
0
0
0
0
0
0
0
0
0
0
0
0
0
0
0
0
0
0
0
0
0
0
0
0
0
0
0
0
0
0
0
0
0
0
0
0
0
0
0
0
0
0
0
0
0
0
0
0
0
0
0
0
0
0
0
0
0
0
0
0
0
0
0
0
0
0
0
0
0
0
0
0
0
0
0
0
0
0
0
0
0
0
0
0
0
0
0
0
0
0
0
0
0
0
0
0
0
0
0
0
0
0
0
0
0
0
0
0
0
0
0
0
0
0
0
0
0
0
0
0
0
0
0
0
0
0
0
0
0
0
0
0
0
0
0
0
0
0
0
0
0
0
0
0
0
0
0
0
0
0
0
0
0
0
0
0
0
0
0
0
0
0
0
0
0
0
0
0
0
0
0
0
0
0
0
0
0
0
0
0
0
0
0
0
0
0
0
0
0
0
0
0
0
0
0
0
0
0
0
0
0
0
0
0
0
0
0
0
0
0
0
0
0
0
0
0
0
0
0
0
0
0
0
0
0
0
0
0
0
0
0
0
0
0
0
0
0
0
0
0
0
0
0
0
0
0
0
0
0
0
0
0
0
0
0
0
0
0
0
0
0
0
0
0
0
0
0
0
0
0
0
0
0
0
0
0
0
0
0
0
0
0
0
0
0
-0.00178785
0
-0.000718574
-0.000289408
-0.000157558
-7.95332e-05
-3.39163e-05
-1.58084e-05
-6.84808e-06
-2.93687e-06
-1.02822e-06
-3.01286e-07
-5.74538e-08
-2.49354e-09
-4.61148e-14
-2.53099e-18
-4.87944e-24
-4.32705e-31
-3.93251e-36
-1.11586e-42
-1.82395e-50
-1.91724e-55
-1.67201e-63
-1.53318e-71
-4.5995e-71
-8.82967e-81
-1.65201e-89
-2.98311e-98
-5.79933e-110
-1.12788e-119
-1.22577e-130
-7.85312e-142
-2.41161e-118
-1.54994e-129
-8.93081e-143
-2.10993e-177
-3.70387e-158
0
0
-2.86101e-184
-2.71768e-193
-1.29875e-210
0
0
0
0
0
0
0
0
0
0
0
0
0
0
0
0
0
0
0
0
0
0
0
0
0
0
0
0
0
0
0
0
0
0
0
0
0
0
0
0
0
-0.000149486
-0.00221856
-0.000896179
-0.000806297
-0.00154954
-0.00111565
-0.00167554
0
0
0
-0.000907022
0
0
0
0
0
0
0
0
0
0
0
0
0
0
0
0
-0.00158249
-0.00126795
0
0
0
0
0
-0.000449234
0
-0.000287798
-0.000360268
-0.000489795
-0.000226252
-0.000316163
-0.0003932
-0.000644164
-0.000252886
-0.000408626
-0.000507847
-0.0013762
-0.000327666
-0.00204946
-0.00109915
-0.00131689
-0.00164348
-0.000857316
-0.00104785
-0.000548697
-0.000682725
-0.000857364
-0.000436577
-0.000546943
-0.000681044
-0.000351836
-0.000440203
-0.00138849
-0.000280039
-0.000895945
-0.00111629
-0.000564511
-0.000706306
-0.00103746
-0.000450269
-0.000753367
-0.000826826
-0.000481512
-0.000602406
-0.000450321
-0.000383562
-0.000288759
-0.000360246
-0.000183244
-0.000229617
-0.000117053
-0.000145606
-8.55375e-05
-9.29633e-05
-5.44372e-05
-6.77364e-05
-3.50204e-05
-4.37035e-05
-2.18796e-05
-2.74165e-05
-1.7323e-05
-1.74647e-05
-1.15544e-05
-1.38196e-05
-9.43735e-06
-9.18479e-06
-6.21722e-06
-7.45186e-06
-3.88864e-06
-4.86503e-06
-2.78823e-06
-2.96635e-06
-1.71026e-06
-2.13105e-06
-9.98493e-07
-1.24943e-06
-6.09195e-07
-7.1496e-07
-3.35395e-07
-4.16743e-07
-1.91536e-07
-2.16552e-07
-9.95949e-08
-1.15663e-07
-4.04989e-08
-5.05331e-08
-1.09868e-08
-1.37576e-08
-1.62978e-09
-2.02805e-09
-3.95464e-12
-5.03805e-12
-3.98549e-15
-4.96778e-15
-2.41184e-18
-3.01561e-18
-9.95373e-22
-1.26076e-21
-3.33948e-25
-4.15976e-25
-1.2159e-28
-1.52112e-28
-1.78435e-32
-2.27215e-32
-3.43087e-36
-4.29329e-36
-4.82064e-40
-6.03034e-40
-1.79319e-42
-2.26618e-42
-5.68872e-44
-7.09682e-44
-7.38204e-46
-9.25328e-46
-2.60024e-46
-3.23519e-46
-3.25819e-47
-4.1278e-47
-2.09041e-48
-2.60306e-48
-3.07902e-50
-3.85252e-50
-6.35501e-52
-8.07118e-52
-8.80088e-54
-1.09659e-53
-7.33824e-56
-9.18137e-56
-4.53078e-52
-5.7676e-52
-7.92773e-54
-9.91626e-54
-6.27931e-56
-7.85485e-56
-1.28831e-58
-1.63365e-58
-7.18171e-62
-8.94882e-62
-2.4284e-60
-3.03879e-60
-2.87635e-63
-3.63241e-63
-2.42812e-66
-3.0173e-66
-5.46304e-70
-6.96702e-70
-1.9779e-73
-2.51245e-73
-4.15674e-77
-5.18731e-77
-2.88979e-81
-3.62281e-81
-1.45934e-79
-1.81684e-79
-9.9718e-84
-1.26692e-83
-1.07021e-87
-1.33841e-87
-1.90548e-91
-2.38417e-91
-7.84423e-96
-9.94937e-96
-5.75439e-100
-7.17104e-100
-1.26013e-103
-1.57658e-103
-2.16667e-108
-2.73569e-108
-1.00782e-112
-1.25211e-112
-7.86002e-118
-1.0024e-117
-1.70761e-121
-2.16986e-121
-2.00358e-126
-2.50045e-126
-6.19648e-132
-7.76983e-132
-3.82308e-112
-4.75659e-112
-3.5232e-111
-4.46449e-111
-1.68141e-115
-2.09377e-115
-1.28533e-120
-1.60812e-120
-7.31704e-125
-9.29145e-125
-1.51845e-130
-1.89198e-130
-5.87324e-133
-7.34815e-133
-2.02217e-126
-2.57573e-126
-1.36875e-131
-1.71299e-131
-3.89499e-136
-4.87239e-136
-4.38022e-142
-5.5355e-142
-1.39782e-146
-1.74357e-146
-3.18458e-155
-3.99102e-155
-1.95162e-141
-2.4282e-141
-5.45053e-149
-6.90891e-149
-1.5801e-154
-1.96743e-154
-4.00022e-162
-5.00685e-162
-9.13278e-174
-1.16036e-173
-5.52141e-178
-6.87841e-178
-1.08114e-181
-1.35246e-181
-5.40217e-184
-6.87725e-184
-1.2728e-192
-1.59202e-192
-3.58946e-197
-4.4903e-197
-1.88565e-208
-2.39073e-208
-8.46414e-213
-1.05458e-212
-8.1206e-194
-1.01619e-193
-2.64257e-202
-3.33693e-202
-7.12458e-207
-8.85194e-207
-1.37653e-218
-1.75596e-218
-2.77703e-222
-3.52923e-222
-2.2521e-228
-2.81057e-228
-3.18238e-259
-3.99066e-259
-2.39248e-259
-2.97841e-259
0
0
0
0
0
0
0
0
0
0
0
0
0
0
0
0
0
0
0
0
0
0
0
0
0
0
0
0
0
0
0
0
0
0
0
0
0
0
0
0
0
0
0
0
0
0
0
0
0
0
0
0
0
0
0
0
0
0
0
0
0
0
0
0
0
0
0
0
0
0
0
0
0
0
0
0
0
0
0
0
0
0
0
0
0
0
0
0
0
0
0
0
0
0
0
0
0
0
0
0
0
0
0
0
0
0
0
0
0
0
0
0
0
0
0
0
0
0
0
0
0
0
0
0
0
0
0
0
0
0
0
0
0
0
0
0
0
0
0
0
0
0
0
0
0
0
0
0
0
0
0
0
0
0
0
0
0
-3.57621e-46
-3.04222e-46
-8.83057e-47
-2.93974e-44
-3.48306e-45
-6.32391e-45
-3.18267e-45
-6.25418e-45
-1.17975e-43
-5.04438e-44
-1.18151e-43
-8.45527e-44
-1.13393e-44
-4.91487e-47
-2.12596e-50
-7.14841e-52
-1.5158e-54
-9.00174e-61
-9.85696e-59
-5.02438e-65
-1.59726e-72
-7.32685e-70
-7.41141e-76
-1.91165e-83
-2.70466e-88
-6.17062e-98
-7.66423e-105
-5.82187e-102
-1.49538e-107
-1.37509e-119
-2.00849e-128
-5.01602e-132
-1.97686e-138
-1.40492e-142
-6.75475e-158
-1.51963e-172
-1.79407e-171
-4.18661e-183
0
0
-5.84556e-208
-4.53943e-211
-1.5734e-227
0
0
0
0
0
0
0
0
0
0
0
0
0
0
0
0
0
0
0
0
0
0
0
0
0
0
0
0
0
0
0
0
0
0
-0.0016779
-0.00133774
0
0
0
0
0
0
0
0
0
0
0
0
0
0
0
0
0
0
0
0
0
0
0
0
0
0
0
0
0
0
0
0
0
0
0
0
0
0
0
0
0
0
0
0
0
-0.00111727
0
-0.000893391
-0.00045262
-0.000230296
-0.000100254
-5.08957e-05
-2.24852e-05
-9.92143e-06
-4.25859e-06
-1.75897e-06
-5.63071e-07
-1.44785e-07
-1.66271e-08
-1.70118e-11
-8.92007e-16
-3.91449e-21
-1.98054e-27
-2.01022e-32
-5.11715e-39
-6.54141e-47
-5.92877e-55
-1.87584e-59
-3.31308e-67
-3.28053e-75
-9.14918e-76
-4.60696e-84
-1.6149e-93
-1.77102e-103
-2.87067e-113
-5.88268e-124
-1.89831e-135
-1.32976e-123
-9.64421e-124
-6.93197e-133
-9.65964e-147
-1.0258e-183
-2.79884e-189
0
-8.56862e-158
-2.68514e-167
-1.79265e-197
-7.34028e-214
0
0
0
0
0
0
0
0
0
0
0
0
0
0
0
0
0
0
0
0
0
0
0
0
0
0
0
0
0
0
0
0
0
0
0
0
0
0
0
0
0
-0.00116213
-0.00139576
-0.00125039
-0.00245333
-0.00176938
-0.000711775
0
-0.00144517
-0.00113027
0
0
0
0
0
0
0
0
0
0
0
0
0
0
0
0
-0.000728927
0
0
0
0
0
0
0
0
0
0
0
0
0
0
0
0
0
0
0
0
0
0
0
0
0
0
0
0
0
0
0
0
0
0
0
0
0
0
0
-3.46956e-50
-1.79581e-46
-2.50062e-46
-7.76537e-44
-1.02274e-44
-1.33864e-44
-5.68779e-45
-1.09304e-44
-6.21732e-45
-4.98776e-44
-3.08e-43
-3.0702e-43
-1.75491e-44
-1.18012e-45
-1.21759e-48
-6.34692e-50
-3.13626e-52
-1.84117e-57
-1.10083e-55
-2.12103e-61
-1.44515e-68
-2.37757e-66
-6.78572e-72
-4.05873e-79
-4.70339e-84
-5.09056e-93
-9.64901e-100
-4.25996e-97
-4.74408e-107
-3.17081e-113
-1.77553e-124
-1.9575e-123
-5.52073e-131
-5.1855e-135
-1.32204e-146
-4.81226e-162
-5.62704e-161
-1.37621e-174
-8.56003e-195
0
-1.78113e-196
0
-8.82835e-223
-6.69133e-230
0
0
0
0
0
0
0
0
0
0
0
0
0
0
0
0
0
0
0
0
0
0
0
0
0
0
0
0
-0.00134049
0
0
0
0
0
0
0
0
0
0
0
0
0
0
0
0
0
0
0
0
0
0
0
0
0
0
0
0
0
0
0
0
-2.00939e-227
-5.68306e-211
-7.35965e-208
0
0
-5.2776e-183
-2.24038e-171
-1.89126e-172
-8.45905e-158
-1.75599e-142
-2.47245e-138
-6.25339e-132
-2.56365e-128
-1.7342e-119
-1.8901e-107
-7.27764e-102
0
-9.73632e-105
-7.73763e-98
-3.40799e-88
-2.37736e-83
-9.23074e-76
-9.21609e-70
-1.99023e-72
-6.36833e-65
-1.2275e-58
-1.14888e-60
-1.90243e-54
-8.91465e-52
-2.71923e-50
-6.17836e-47
-1.43801e-44
-1.05646e-43
-1.49656e-43
-6.3573e-44
-1.48515e-43
0
-7.77845e-45
-3.96357e-45
-7.96325e-45
-4.34113e-45
-3.74343e-44
-1.10019e-46
0
-3.87702e-46
-4.49001e-46
0
0
0
0
0
0
0
0
0
0
0
0
0
0
0
0
-0.00057107
-0.00139529
-0.00193632
-0.00100589
-0.00111854
0
0
0
0
0
0
0
0
0
0
0
0
0
0
0
0
0
0
0
0
0
0
0
0
0
0
0
0
0
0
0
0
0
0
0
0
0
-1.6668e-210
-3.45274e-193
-3.57518e-184
0
0
-4.65817e-158
-2.64462e-177
-1.11e-142
-1.99073e-129
-3.04173e-118
-9.81917e-142
-1.52736e-130
-1.40405e-119
-7.44871e-110
-3.79543e-98
-2.05917e-89
-1.13548e-80
-5.83902e-71
-1.93988e-71
-2.1165e-63
-2.43746e-55
-2.29596e-50
-1.39951e-42
-4.88852e-36
-5.48174e-31
-6.14697e-24
-3.16408e-18
-5.75225e-14
-3.10332e-09
-6.9585e-08
-3.55033e-07
-1.28164e-06
-3.21379e-06
-7.67376e-06
-1.79949e-05
-4.06556e-05
-7.89741e-05
0
0
0
0
0
0
0
0
0
0
0
0
0
0
0
0
0
0
0
0
0
0
0
0
0
0
0
0
0
0
0
0
0
0
0
0
0
-8.38186e-230
-1.11104e-222
0
-2.27215e-196
0
-1.06396e-194
-1.75778e-174
-7.03394e-161
-6.05474e-162
-1.66736e-146
-6.47037e-135
-6.95243e-131
-2.45126e-123
-2.2093e-124
-3.97023e-113
-5.9093e-107
-5.33867e-97
-1.21398e-99
-6.32782e-93
-5.99976e-84
-5.07949e-79
-8.56097e-72
-2.98783e-66
-1.80171e-68
-2.65825e-61
-1.37754e-55
-2.29226e-57
-3.93778e-52
-7.94683e-50
-1.51435e-48
-1.47815e-45
-2.18975e-44
-3.84587e-43
-3.85045e-43
-6.20001e-44
-7.92612e-45
-1.36809e-44
-7.17455e-45
-1.68517e-44
-1.2751e-44
-9.74468e-44
-3.12965e-46
-2.23632e-46
-4.34948e-50
0
0
0
0
0
0
0
0
0
0
0
0
0
0
0
0
0
0
0
0
0
0
0
0
0
0
0
0
0
0
-0.00088381
-0.0012457
-0.00064102
-0.000706629
-0.00174512
-0.000119482
0
0
0
0
0
0
0
0
0
0
0
0
0
0
0
0
0
0
0
0
0
0
0
0
0
0
0
0
0
0
0
0
0
0
0
0
0
0
0
-9.17915e-214
-2.2354e-197
-3.34962e-167
-1.07799e-157
0
-3.49531e-189
-1.30372e-183
-1.20924e-146
-8.74567e-133
-1.20604e-123
-1.66226e-123
-2.42558e-135
-7.37068e-124
-3.58787e-113
-2.20765e-103
-2.01729e-93
-5.78535e-84
-1.14012e-75
-4.0927e-75
-4.18315e-67
-2.33585e-59
-7.40383e-55
-8.32088e-47
-6.40448e-39
-2.55357e-32
-2.48112e-27
-4.89244e-21
-1.1385e-15
-2.1316e-11
-2.0776e-08
-1.80481e-07
-7.03509e-07
-2.15772e-06
-5.3086e-06
-1.23802e-05
-2.68549e-05
-6.33714e-05
-0.000125164
-0.000231951
-0.000566058
0
0
0
0
0
0
0
0
0
0
0
0
0
0
0
0
0
0
0
-0.00139809
0
0
0
-0.000183017
-0.000354561
0
-0.000930356
0
0
0
0
0
0
0
0
0
0
0
0
0
0
0
0
0
0
0
0
0
0
0
0
0
0
0
0
0
0
0
0
0
0
0
0
0
0
0
0
0
0
0
0
0
0
0
0
0
0
0
0
0
0
0
0
0
0
0
0
0
0
0
0
0
0
0
0
0
0
0
0
0
0
0
0
0
0
0
0
0
0
0
0
0
0
0
0
0
0
0
0
0
0
0
0
0
0
0
0
0
0
0
0
0
0
0
0
0
0
0
0
0
0
0
0
0
0
0
0
0
0
0
0
0
0
0
0
0
0
0
0
0
0
0
0
0
0
0
0
0
0
0
0
0
0
0
0
0
0
0
0
0
0
0
0
0
0
0
0
0
0
0
0
0
0
0
0
0
0
0
0
0
0
0
0
0
0
0
0
0
0
0
0
0
0
0
0
0
0
0
0
0
0
0
0
0
0
0
0
0
0
0
0
0
0
0
0
0
0
0
0
0
0
0
0
0
0
0
0
0
0
0
0
0
0
0
0
0
0
0
0
0
0
0
0
0
0
0
0
0
0
0
0
0
0
0
0
0
0
0
0
0
0
0
0
0
0
0
0
0
0
0
0
0
0
0
0
0
0
0
0
0
0
0
0
0
0
0
0
0
0
0
0
0
0
0
0
0
0
0
0
0
0
0
0
0
0
0
0
0
0
0
0
0
0
0
0
0
0
0
0
0
0
0
0
0
0
0
0
0
0
0
0
0
0
0
0
0
0
0
0
0
0
0
0
0
0
0
0
0
0
0
0
0
0
0
0
0
0
0
0
0
0
0
0
0
0
0
0
0
0
0
0
0
0
0
0
0
0
0
0
0
0
0
0
0
0
0
0
0
0
0
0
0
0
0
0
0
0
0
0
0
0
0
0
0
0
0
0
0
0
0
0
0
0
0
0
0
0
0
0
0
0
0
0
0
0
0
0
0
0
0
0
0
0
0
0
0
0
0
0
0
0
0
0
0
0
0
0
0
0
0
0
0
0
0
0
0
0
0
0
0
0
0
0
0
0
0
0
0
0
0
0
0
0
0
0
0
0
0
0
0
0
0
0
0
0
0
0
0
0
0
0
0
0
0
0
0
0
0
0
0
0
0
0
0
0
0
0
0
0
0
0
0
0
0
0
0
0
0
0
0
0
0
0
0
0
0
0
0
0
0
0
0
0
0
0
0
0
0
0
0
0
0
0
0
0
0
0
0
0
0
0
0
0
0
0
0
0
0
0
0
0
0
0
0
0
0
0
0
0
0
0
0
0
0
0
0
0
0
0
0
0
0
0
0
0
0
0
0
0
0
0
0
0
0
0
0
0
0
0
0
0
0
0
0
0
0
0
0
0
0
0
-4.21896e-90
0
0
-2.93381e-05
0
0
0
0
0
-8.00169e-43
0
0
0
0
0
0
0
0
-7.6221e-06
0
0
0
0
0
0
0
0
0
0
0
0
0
0
0
0
0
0
0
0
0
0
0
-1.67691e-05
-1.18703e-05
-9.4679e-06
0
0
-3.60162e-06
-1.93709e-06
-1.05177e-06
-4.1517e-07
-2.27698e-07
-9.43159e-08
-2.95658e-08
-8.84733e-09
-9.60921e-10
-6.93576e-13
-7.32876e-17
-1.22163e-22
-2.92111e-29
-1.49528e-33
-5.44201e-41
-1.98109e-48
-1.61625e-52
-1.25401e-60
-1.93349e-69
-3.14998e-69
-1.47887e-77
-5.75856e-88
-1.59849e-96
-2.44907e-105
-4.48488e-118
-1.09553e-128
-1.23447e-117
-1.46985e-116
-7.54683e-126
-2.80271e-141
-1.10551e-175
-3.67062e-156
-3.10158e-158
-1.27698e-193
-2.69813e-182
-1.49372e-191
-2.39093e-199
-5.50908e-217
0
0
0
0
0
0
0
0
0
0
0
0
0
0
0
0
0
0
0
0
0
0
0
0
0
0
0
0
0
0
0
0
0
0
0
-7.32144e-06
0
0
0
0
0
-1.01396e-06
-7.93965e-07
0
0
-2.57475e-05
-2.49645e-05
-1.0034e-05
-2.30482e-05
0
0
0
-8.61993e-06
0
0
0
0
0
0
0
0
0
0
0
0
0
-1.2694e-05
0
0
0
0
0
-4.59826e-05
-3.64634e-05
0
0
0
0
0
0
0
0
0
-1.67915e-06
0
-1.05621e-06
-1.32971e-06
-2.28908e-06
-8.40136e-07
-4.02176e-06
-1.83292e-06
-2.58775e-06
-3.22434e-06
-4.51457e-06
-2.05249e-06
-3.25212e-06
-3.58453e-06
-2.10084e-06
-2.61575e-06
-8.24788e-06
-1.67232e-06
-5.24451e-06
-6.52366e-06
-3.3484e-06
-4.18462e-06
-2.1115e-06
-2.64965e-06
-6.86994e-06
-1.6955e-06
-4.37976e-06
-5.47871e-06
-1.89591e-05
-3.52497e-06
-1.1851e-05
-1.48151e-05
-7.58019e-06
-9.46874e-06
-1.28056e-05
-6.08688e-06
-8.16175e-06
-1.01638e-05
-5.23757e-06
-6.55041e-06
-3.38988e-06
-4.22012e-06
-2.63562e-06
-2.65049e-06
-1.67219e-06
-2.07907e-06
-1.06533e-06
-1.33096e-06
-6.69645e-07
-8.39944e-07
-8.34722e-07
-5.35245e-07
-5.30456e-07
-6.63639e-07
-3.38066e-07
-4.21392e-07
-4.10295e-07
-2.67834e-07
-2.86666e-07
-3.25271e-07
-2.58528e-07
-2.27726e-07
-1.62734e-07
-2.02684e-07
-1.01714e-07
-1.27195e-07
-9.29469e-08
-7.83969e-08
-5.57853e-08
-6.97788e-08
-3.29547e-08
-4.12422e-08
-1.90016e-08
-2.36642e-08
-1.25103e-08
-1.29191e-08
-6.66529e-09
-8.271e-09
-3.09837e-09
-3.85654e-09
-1.25012e-09
-1.45705e-09
-3.74068e-10
-4.65086e-10
-5.48279e-11
-6.85608e-11
-8.65133e-14
-1.10756e-13
-1.12277e-16
-1.39736e-16
-4.47655e-20
-5.5947e-20
-1.12128e-23
-1.4173e-23
-7.15884e-27
-8.94668e-27
-1.14683e-30
-1.43242e-30
-1.13733e-34
-1.44387e-34
-3.96552e-38
-4.93795e-38
-9.04388e-41
-1.13058e-40
-2.58553e-42
-3.21708e-42
-7.90639e-44
-1.00127e-43
-4.02334e-44
-5.00387e-44
-6.7062e-45
-8.38082e-45
-6.00147e-46
-7.53108e-46
-8.96025e-48
-1.13062e-47
-1.33342e-49
-1.66835e-49
-1.81078e-51
-2.29699e-51
-6.91902e-54
-8.64973e-54
-1.46446e-49
-1.82868e-49
-2.5451e-51
-3.22979e-51
-8.69697e-54
-1.08284e-53
-1.0871e-56
-1.35922e-56
-5.37779e-60
-6.81156e-60
-2.69919e-58
-3.37649e-58
-2.31716e-61
-2.90015e-61
-9.9191e-65
-1.23545e-64
-2.18149e-68
-2.75584e-68
-1.18555e-71
-1.48486e-71
-1.31319e-75
-1.63477e-75
-2.1659e-74
-2.74259e-74
-2.2392e-77
-2.78443e-77
-1.63346e-80
-2.05689e-80
-8.22921e-85
-1.04369e-84
-3.48201e-89
-4.336e-89
-7.78921e-94
-9.74168e-94
-1.26075e-98
-1.59638e-98
-1.27255e-101
-1.59174e-101
-1.66479e-106
-2.08322e-106
-1.51598e-111
-1.88805e-111
-9.69445e-117
-1.22305e-116
-7.25361e-120
-9.08772e-120
-1.26461e-124
-1.5745e-124
-2.41593e-105
-3.06148e-105
-6.07918e-110
-7.56175e-110
-9.84784e-109
-1.23058e-108
-6.17643e-113
-7.75068e-113
-4.66927e-118
-5.89521e-118
-2.69946e-122
-3.37639e-122
-3.70784e-128
-4.69844e-128
-6.31228e-131
-7.89081e-131
-9.3462e-124
-1.16745e-123
-6.28164e-129
-7.97957e-129
-1.06982e-133
-1.33205e-133
-5.00568e-140
-6.25734e-140
-1.16233e-148
-1.44626e-148
-3.07427e-148
-3.8914e-148
-3.0284e-139
-3.76537e-139
-1.47497e-146
-1.84317e-146
-1.55651e-153
-1.95266e-153
-7.82091e-164
-4.54477e-165
-4.76392e-164
-5.98389e-164
-1.26798e-175
-1.59917e-175
-9.73084e-180
-1.21586e-179
-1.70402e-181
-2.1278e-181
-3.98872e-190
-5.06134e-190
-8.87773e-195
-1.10531e-194
-2.14569e-206
-2.68292e-206
-1.50799e-214
-9.79641e-219
-8.95243e-192
-1.11982e-191
-2.10369e-200
-2.63247e-200
-4.16289e-212
-5.18485e-212
-1.95956e-220
-7.41845e-243
-1.24287e-220
-1.55745e-220
-1.82462e-225
-2.27171e-225
-4.94581e-230
-6.2642e-230
-3.54509e-257
-4.40937e-257
0
0
0
0
0
0
0
0
0
0
0
0
0
0
0
0
0
0
0
0
0
0
0
0
0
0
0
0
0
0
0
0
0
0
0
0
0
0
0
0
0
0
0
0
0
0
0
0
0
0
0
0
0
0
0
0
0
0
0
0
0
0
0
0
0
0
0
0
0
0
0
0
0
0
0
0
0
0
0
0
0
0
0
0
0
0
0
0
0
0
0
0
0
0
0
0
0
0
0
0
0
0
0
0
0
0
0
0
0
0
0
-3.77281e-44
0
0
0
0
0
0
0
0
0
0
0
0
0
0
0
0
0
0
0
0
0
0
0
0
0
0
0
0
0
0
0
0
0
0
0
0
0
0
-1.21668e-47
-4.04002e-48
-5.12126e-44
-2.51835e-44
-3.21337e-44
-4.7132e-44
0
-1.29118e-42
-1.0048e-41
-1.21624e-42
-6.76593e-43
-1.88751e-42
-1.07297e-42
-1.34062e-42
-9.99574e-43
0
0
-1.68377e-41
-5.19799e-42
-7.21364e-41
-5.95371e-41
-2.33362e-42
-1.99262e-44
-4.42562e-46
-3.25169e-48
-1.05356e-52
-5.25285e-51
-2.38717e-56
-1.03193e-56
-3.51378e-61
-5.48667e-66
-1.06949e-73
-2.01601e-81
-2.6606e-86
-3.79958e-93
-5.0762e-98
-6.33941e-98
-5.26909e-90
0
0
-1.2108e-99
-1.18024e-105
-4.51598e-114
-4.1657e-126
-1.18247e-129
-9.14198e-137
-2.05638e-140
-1.50728e-155
-1.86939e-170
-1.27762e-163
-1.71499e-181
-1.72442e-192
-9.69074e-186
-4.50568e-206
-1.8545e-208
-2.40029e-216
-9.08156e-232
0
0
0
0
0
0
0
0
0
0
0
0
0
0
0
0
0
0
0
0
0
0
0
0
0
0
0
0
0
0
-1.36309e-05
-1.07924e-05
0
0
-1.83457e-05
-1.46739e-05
-5.56199e-06
-4.39435e-06
0
0
0
0
0
0
0
0
0
0
0
0
0
0
0
0
0
0
0
0
0
0
0
0
0
0
0
0
0
0
0
0
0
0
0
0
0
0
-2.61836e-05
0
0
0
0
0
0
0
0
0
0
0
0
0
0
0
0
0
-2.0898e-05
-1.07707e-05
-5.62564e-06
-2.31048e-06
-1.23405e-06
-6.55862e-07
-3.42878e-07
-1.36113e-07
-5.42041e-08
-1.77245e-08
-3.44228e-09
-1.51884e-10
-1.98881e-14
-1.64541e-19
-6.11322e-26
-7.76854e-30
-6.04598e-37
-1.24552e-44
-9.0489e-50
-1.48101e-56
-4.75003e-65
-4.89988e-73
-6.16787e-74
-1.84215e-82
-6.07066e-91
-5.26215e-103
-1.15803e-111
-5.28993e-122
-1.32271e-111
-1.73348e-121
-7.11337e-121
-2.77778e-131
-1.46117e-144
-4.61686e-146
-4.48113e-148
-2.34765e-189
-8.18003e-156
-4.49535e-165
-3.80875e-199
-2.87058e-212
0
0
0
0
0
0
0
0
0
0
0
0
0
0
0
0
0
0
0
0
0
0
0
0
0
0
0
0
0
0
0
0
0
0
0
0
0
0
0
0
0
-2.01846e-05
-1.61498e-05
-4.70768e-06
-1.29917e-05
-5.86806e-06
-1.56968e-05
-3.64105e-05
0
0
-6.91757e-06
-1.47525e-05
0
0
0
0
-6.00332e-06
-2.3673e-05
0
0
0
0
0
0
-1.8392e-05
0
0
-2.66184e-44
-1.89178e-44
0
0
0
0
0
0
0
0
0
0
0
0
0
-1.00983e-05
0
0
0
0
0
0
0
0
0
0
0
0
0
0
0
0
0
0
0
0
0
0
0
-7.2522e-48
-2.17378e-48
-1.63236e-42
-3.50088e-42
-3.49746e-42
-1.43703e-42
-3.55907e-43
-4.38269e-43
-6.98239e-42
-2.72849e-41
-2.4746e-41
-1.79957e-41
-8.81794e-44
-6.06506e-46
-7.96363e-48
-3.39077e-50
-1.26075e-55
-9.92468e-54
-1.13623e-59
-9.86609e-60
-1.93494e-64
-1.01314e-69
-4.14957e-77
-8.28568e-82
-4.93789e-91
-9.10766e-95
-1.35811e-100
-1.43182e-111
-3.58042e-120
-4.6947e-121
-3.38297e-129
-7.66723e-133
-3.45996e-144
-6.06769e-160
-1.58247e-158
-7.24692e-173
-3.32797e-193
0
-2.29434e-194
0
-1.8238e-212
-4.74489e-228
0
0
0
0
0
0
0
0
0
0
0
0
0
0
0
0
0
0
0
0
0
0
0
0
0
0
0
0
0
0
0
0
0
0
0
0
0
0
0
0
0
0
0
0
0
0
0
0
0
0
0
0
0
0
0
0
-1.15072e-231
-2.998e-216
-2.30751e-208
-5.61261e-206
-1.22007e-185
-2.15408e-192
-2.13642e-181
-1.63238e-163
-2.37497e-170
-1.90561e-155
-2.58232e-140
-1.14035e-136
-1.49706e-129
0
0
-5.20834e-126
-5.73495e-114
-1.46642e-105
-1.54616e-99
-4.83973e-93
-3.31392e-86
-2.53039e-81
-1.37361e-73
-6.92519e-66
-4.41979e-61
-1.29923e-56
-2.99651e-56
-6.61569e-51