/*--------------------------------*- C++ -*----------------------------------*\
  =========                 |
  \\      /  F ield         | OpenFOAM: The Open Source CFD Toolbox
   \\    /   O peration     | Website:  https://openfoam.org
    \\  /    A nd           | Version:  7
     \\/     M anipulation  |
\*---------------------------------------------------------------------------*/
FoamFile
{
    version     2.0;
    format      ascii;
    class       volScalarField;
    location    "0.1";
    object      T;
}
// * * * * * * * * * * * * * * * * * * * * * * * * * * * * * * * * * * * * * //

dimensions      [0 0 0 1 0 0 0];

internalField   nonuniform List<scalar> 
10000
(
0.499957
0.0670196
-0.0351284
-0.0277405
-0.00808242
0.00110248
0.00247032
0.00139421
0.000421331
-1.98411e-06
-9.47154e-05
-7.42802e-05
-3.95958e-05
-1.67947e-05
-5.72164e-06
-1.36787e-06
-1.414e-08
2.46953e-07
2.03283e-07
1.19559e-07
5.99405e-08
2.6998e-08
1.11337e-08
4.21323e-09
1.44277e-09
4.27465e-10
9.39602e-11
1.89905e-12
-1.45631e-11
-1.19996e-11
-7.1428e-12
-3.69096e-12
-1.75077e-12
-7.80872e-13
-3.31394e-13
-1.34594e-13
-5.24097e-14
-1.95334e-14
-6.92724e-15
-2.30757e-15
-7.02284e-16
-1.82098e-16
-3.06454e-17
5.06581e-18
8.89466e-18
6.19152e-18
3.45274e-18
1.72973e-18
8.11098e-19
3.62968e-19
1.56657e-19
6.5618e-20
2.67746e-20
1.06659e-20
4.1523e-21
1.5798e-21
5.86799e-22
2.12301e-22
7.45089e-23
2.51877e-23
8.09941e-24
2.41786e-24
6.33434e-25
1.20786e-25
-3.31201e-27
-2.10392e-26
-1.57984e-26
-9.02844e-27
-4.58377e-27
-2.1739e-27
-9.85203e-28
-4.31895e-28
-1.84487e-28
-7.71463e-29
-3.16802e-29
-1.28032e-29
-5.09981e-30
-2.00416e-30
-7.77545e-31
-2.97899e-31
-1.12711e-31
-4.21012e-32
-1.55159e-32
-5.63593e-33
-2.01448e-33
-7.06875e-34
-2.42637e-34
-8.10262e-35
-2.60901e-35
-7.97424e-36
-2.24194e-36
-5.35987e-37
-7.85718e-38
1.91322e-38
2.62575e-38
1.72655e-38
9.33191e-39
4.59005e-39
2.13382e-39
1.05331e-39
0.933176
0.500182
0.144535
-0.014582
-0.0422115
-0.0246866
-0.00697624
0.000886292
0.00229304
0.00153882
0.000684924
0.000209046
2.34921e-05
-2.38341e-05
-2.39866e-05
-1.47728e-05
-7.36104e-06
-3.16654e-06
-1.18834e-06
-3.76443e-07
-8.69157e-08
-1.88257e-09
1.41864e-08
1.18308e-08
7.05093e-09
3.6105e-09
1.6786e-09
7.2462e-10
2.92991e-10
1.10969e-10
3.90124e-11
1.24165e-11
3.34582e-12
5.86919e-13
-9.12249e-14
-1.70431e-13
-1.2055e-13
-6.77126e-14
-3.39527e-14
-1.58415e-14
-7.01109e-15
-2.97304e-15
-1.21434e-15
-4.78857e-16
-1.82285e-16
-6.68094e-17
-2.34331e-17
-7.77197e-18
-2.3788e-18
-6.34194e-19
-1.20883e-19
5.43376e-21
2.33193e-20
1.7405e-20
9.95783e-21
5.05941e-21
2.39641e-21
1.08177e-21
4.70923e-22
1.99082e-22
8.20815e-23
3.30942e-23
1.30686e-23
5.05798e-24
1.91853e-24
7.12559e-25
2.58663e-25
9.14783e-26
3.13527e-26
1.03209e-26
3.2109e-27
9.13395e-28
2.18269e-28
3.00381e-29
-9.89533e-30
-1.21957e-29
-7.92002e-30
-4.2698e-30
-2.09858e-30
-9.74551e-31
-4.35159e-31
-1.88686e-31
-7.99329e-32
-3.32153e-32
-1.35758e-32
-5.46801e-33
-2.17328e-33
-8.53155e-34
-3.30998e-34
-1.26955e-34
-4.81435e-35
-1.80475e-35
-6.685e-36
-2.44492e-36
-8.81888e-37
-3.13195e-37
-1.09246e-37
-3.72906e-38
-1.23768e-38
-3.48828e-39
1.03556
0.854663
0.498747
0.182572
0.0101482
-0.0407294
-0.0339443
-0.0158126
-0.00397462
0.000595164
0.00136991
0.000967175
0.000489362
0.000196103
5.99543e-05
9.62351e-06
-3.98865e-06
-5.15303e-06
-3.4595e-06
-1.85604e-06
-8.69634e-07
-3.66126e-07
-1.38941e-07
-4.65424e-08
-1.27825e-08
-2.04828e-09
6.11103e-10
8.56824e-10
5.86037e-10
3.24119e-10
1.59951e-10
7.3026e-11
3.1346e-11
1.27375e-11
4.90393e-12
1.77963e-12
6.00277e-13
1.82101e-13
4.53873e-14
5.98379e-15
-2.73155e-15
-3.15612e-15
-2.05873e-15
-1.11762e-15
-5.50484e-16
-2.54403e-16
-1.1213e-16
-4.75528e-17
-1.94986e-17
-7.74891e-18
-2.986e-18
-1.11416e-18
-4.01069e-19
-1.38291e-19
-4.50623e-20
-1.35014e-20
-3.47943e-21
-6.01391e-22
7.55728e-23
1.53377e-22
1.08093e-22
6.05076e-23
3.03993e-23
1.43082e-23
6.43724e-24
2.79875e-24
1.18365e-24
4.88943e-25
1.97792e-25
7.84824e-26
3.05711e-26
1.16924e-26
4.3889e-27
1.6149e-27
5.81236e-28
2.03921e-28
6.9346e-29
2.26417e-29
6.97689e-30
1.95812e-30
4.55686e-31
5.55237e-32
-2.60516e-32
-2.85004e-32
-1.806e-32
-9.63315e-33
-4.70732e-33
-2.17867e-33
-9.70984e-34
-4.20657e-34
-1.78191e-34
-7.40905e-35
-3.0319e-35
-1.22336e-35
-4.87372e-36
-1.91885e-36
-7.47086e-37
-2.87751e-37
-1.09592e-37
-4.08664e-38
1.02781
1.01295
0.816527
0.501411
0.212023
0.0360199
-0.0300542
-0.0346613
-0.0207524
-0.00855006
-0.00216581
0.000149867
0.000601136
0.000466427
0.000260802
0.000120319
4.69746e-05
1.49334e-05
3.12302e-06
-3.19021e-07
-8.64078e-07
-6.52796e-07
-3.75588e-07
-1.87498e-07
-8.47206e-08
-3.51762e-08
-1.34249e-08
-4.63818e-09
-1.38485e-09
-3.04905e-10
-3.90219e-12
5.01573e-11
4.12753e-11
2.4685e-11
1.28213e-11
6.10743e-12
2.73115e-12
1.15946e-12
4.69595e-13
1.8154e-13
6.67318e-14
2.30911e-14
7.35799e-15
2.04853e-15
4.19087e-16
-3.0075e-18
-7.09902e-17
-5.58676e-17
-3.27591e-17
-1.68933e-17
-8.07327e-18
-3.65953e-18
-1.59261e-18
-6.69994e-19
-2.73525e-19
-1.08574e-19
-4.19208e-20
-1.57266e-20
-5.71592e-21
-2.00172e-21
-6.68746e-22
-2.0914e-22
-5.87647e-23
-1.32046e-23
-1.13037e-24
1.18035e-24
1.09903e-24
6.74609e-25
3.5571e-25
1.72774e-25
7.95736e-26
3.52684e-26
1.5171e-26
6.36702e-27
2.61586e-27
1.05438e-27
4.17517e-28
1.62536e-28
6.22152e-29
2.34067e-29
8.64665e-30
3.13072e-30
1.10785e-30
3.81404e-31
1.26804e-31
4.01942e-32
1.18525e-32
3.07306e-33
5.80976e-34
-1.57739e-35
-9.9892e-35
-7.47049e-35
-4.25746e-35
-2.15838e-35
-1.02345e-35
-4.64326e-36
-2.04029e-36
-8.74674e-37
-3.67333e-37
-1.57755e-37
1.00757
1.04058
0.993256
0.795521
0.501545
0.230733
0.0594888
-0.0131376
-0.0274296
-0.020241
-0.0106132
-0.00428076
-0.00121633
-7.96801e-05
0.000197291
0.000184067
0.000114253
5.84666e-05
2.60454e-05
1.01884e-05
3.4008e-06
8.58891e-07
6.19267e-08
-1.11803e-07
-1.04341e-07
-6.54664e-08
-3.47551e-08
-1.66296e-08
-7.35003e-09
-3.02842e-09
-1.16243e-09
-4.10909e-10
-1.296e-10
-3.33011e-11
-4.42219e-12
2.19724e-12
2.54358e-12
1.679e-12
9.20392e-13
4.56067e-13
2.11098e-13
9.27088e-14
3.89366e-14
1.56924e-14
6.0698e-15
2.24595e-15
7.88675e-16
2.58506e-16
7.62536e-17
1.83038e-17
2.08599e-18
-1.32783e-18
-1.3934e-18
-8.89748e-19
-4.79601e-19
-2.36113e-19
-1.09563e-19
-4.86741e-20
-2.08835e-20
-8.69742e-21
-3.52638e-21
-1.3939e-21
-5.37252e-22
-2.01698e-22
-7.35681e-23
-2.59471e-23
-8.77589e-24
-2.8034e-24
-8.19968e-25
-2.03079e-25
-3.07357e-26
7.65774e-27
1.07751e-26
7.22591e-27
3.96771e-27
1.97521e-27
9.25887e-28
4.16204e-28
1.81247e-28
7.69361e-29
3.19598e-29
1.30262e-29
5.21812e-30
2.05655e-30
7.97838e-31
3.04691e-31
1.14494e-31
4.2292e-32
1.53305e-32
5.43917e-33
1.88101e-33
6.29902e-34
2.01996e-34
6.07628e-35
1.63948e-35
3.48031e-36
2.11611e-37
-3.618e-37
-3.10878e-37
-2.23951e-37
0.997998
1.02254
1.04816
0.97812
0.766969
0.483205
0.234593
0.0776306
0.00528805
-0.0160112
-0.0156554
-0.00991042
-0.00497686
-0.002053
-0.000661307
-0.000119444
3.99056e-05
5.9544e-05
4.25822e-05
2.40597e-05
1.18184e-05
5.20294e-06
2.06175e-06
7.21423e-07
2.08132e-07
3.66255e-08
-8.71234e-09
-1.40877e-08
-1.00707e-08
-5.74408e-09
-2.90548e-09
-1.35337e-09
-5.90016e-10
-2.42232e-10
-9.35681e-11
-3.37091e-11
-1.10749e-11
-3.13358e-12
-6.23935e-13
3.51693e-14
1.35824e-13
1.03875e-13
6.07662e-14
3.13891e-14
1.50137e-14
6.79268e-15
2.93876e-15
1.22268e-15
4.90378e-16
1.89556e-16
7.0416e-17
2.49701e-17
8.34059e-18
2.55257e-18
6.68402e-19
1.15367e-19
-1.70447e-20
-3.22511e-20
-2.28245e-20
-1.28825e-20
-6.5248e-21
-3.0922e-21
-1.39834e-21
-6.09842e-22
-2.58099e-22
-1.06399e-22
-4.28156e-23
-1.68342e-23
-6.46664e-24
-2.4242e-24
-8.84702e-25
-3.12955e-25
-1.06509e-25
-3.44142e-26
-1.02847e-26
-2.67265e-27
-4.86025e-28
3.64674e-29
1.04159e-28
7.57116e-29
4.29558e-29
2.17912e-29
1.03499e-29
4.70119e-30
2.06583e-30
8.84284e-31
3.70345e-31
1.52194e-31
6.14908e-32
2.44562e-32
9.58194e-33
3.69946e-33
1.40733e-33
5.27229e-34
1.9431e-34
7.03315e-35
2.49365e-35
8.62608e-36
2.89133e-36
8.09451e-37
0.996497
1.00341
1.04329
1.05272
0.942209
0.710494
0.443051
0.224949
0.0881247
0.0205351
-0.00449892
-0.00942604
-0.00744231
-0.00442322
-0.00220266
-0.000940643
-0.000336064
-8.83523e-05
-4.79183e-06
1.44735e-05
1.34653e-05
8.59451e-06
4.6293e-06
2.22988e-06
9.80732e-07
3.95219e-07
1.44184e-07
4.57611e-08
1.10872e-08
6.88687e-10
-1.48672e-09
-1.3628e-09
-8.57891e-10
-4.6199e-10
-2.26435e-10
-1.03616e-10
-4.47877e-11
-1.83695e-11
-7.14327e-12
-2.6161e-12
-8.87732e-13
-2.68681e-13
-6.5011e-14
-6.5371e-15
5.84332e-15
5.84659e-15
3.73313e-15
2.02363e-15
1.00162e-15
4.66263e-16
2.0714e-16
8.85147e-17
3.6533e-17
1.4588e-17
5.63337e-18
2.09816e-18
7.49346e-19
2.53785e-19
7.97227e-20
2.20821e-20
4.5947e-21
6.74833e-23
-6.90477e-22
-5.58748e-22
-3.31645e-22
-1.72823e-22
-8.3553e-23
-3.83959e-23
-1.69862e-23
-7.2877e-24
-3.04589e-24
-1.2435e-24
-4.96645e-25
-1.9416e-25
-7.42776e-26
-2.77718e-26
-1.01238e-26
-3.5832e-27
-1.22278e-27
-3.97433e-28
-1.20171e-28
-3.20409e-29
-6.33761e-30
3.20625e-32
1.0107e-30
7.84847e-31
4.56251e-31
2.34607e-31
1.12476e-31
5.14708e-32
2.27658e-32
9.8049e-33
4.13129e-33
1.70829e-33
6.94684e-34
2.78209e-34
1.09826e-34
4.27555e-35
1.64057e-35
6.0498e-36
0.997648
0.994036
1.0248
1.06458
1.02687
0.866584
0.627132
0.388468
0.205201
0.0902444
0.0301916
0.00452504
-0.00357029
-0.00444009
-0.00319987
-0.00185312
-0.000928653
-0.000410897
-0.000158995
-5.09279e-05
-1.07043e-05
1.36198e-06
3.39431e-06
2.65132e-06
1.59457e-06
8.36994e-07
3.99777e-07
1.76613e-07
7.24363e-08
2.73886e-08
9.32536e-09
2.67907e-09
5.03452e-10
-7.55467e-11
-1.55416e-10
-1.15311e-10
-6.73831e-11
-3.49404e-11
-1.67603e-11
-7.57769e-12
-3.25841e-12
-1.33733e-12
-5.23591e-13
-1.94559e-13
-6.77927e-14
-2.15752e-14
-5.87227e-15
-1.06805e-15
1.37347e-16
2.93116e-16
2.13805e-16
1.23171e-16
6.33555e-17
3.03706e-17
1.38394e-17
6.05798e-18
2.56228e-18
1.05039e-18
4.17827e-19
1.61179e-19
6.01459e-20
2.16e-20
7.39438e-21
2.36922e-21
6.82996e-22
1.58626e-22
1.54227e-23
-1.33986e-23
-1.31219e-23
-8.24826e-24
-4.42721e-24
-2.18258e-24
-1.0182e-24
-4.56315e-25
-1.98143e-25
-8.37983e-26
-3.4629e-26
-1.40103e-26
-5.55524e-27
-2.15932e-27
-8.22376e-28
-3.06463e-28
-1.11472e-28
-3.9415e-29
-1.34561e-29
-4.38378e-30
-1.33295e-30
-3.60014e-31
-7.41244e-32
-1.97185e-33
9.97834e-33
8.1056e-33
4.78567e-33
2.48199e-33
1.19711e-33
5.50536e-34
2.446e-34
1.05806e-34
4.47412e-35
1.90162e-35
0.998805
0.991672
1.01129
1.05409
1.05325
0.950829
0.757048
0.530378
0.328002
0.178988
0.0852469
0.034168
0.0101833
0.000836258
-0.00177648
-0.00185597
-0.00128394
-0.00073819
-0.000374756
-0.000171344
-7.0491e-05
-2.54726e-05
-7.46286e-06
-1.20676e-06
4.88214e-07
6.69015e-07
4.79216e-07
2.78806e-07
1.44374e-07
6.88164e-08
3.06232e-08
1.27767e-08
4.98019e-09
1.78852e-09
5.71341e-10
1.4668e-10
1.72401e-11
-1.24981e-11
-1.35358e-11
-8.97299e-12
-4.99604e-12
-2.52356e-12
-1.19227e-12
-5.34637e-13
-2.29217e-13
-9.42419e-14
-3.71466e-14
-1.3983e-14
-4.98168e-15
-1.64864e-15
-4.8587e-16
-1.12677e-16
-8.5858e-18
1.21885e-17
1.13186e-17
7.09171e-18
3.82091e-18
1.89152e-18
8.8451e-19
3.96207e-19
1.71338e-19
7.185e-20
2.92856e-20
1.16108e-20
4.47454e-21
1.67222e-21
6.03243e-22
2.08313e-22
6.78009e-23
2.01456e-23
5.0364e-24
7.44484e-25
-2.21857e-25
-2.96101e-25
-1.99187e-25
-1.10343e-25
-5.54779e-26
-2.62595e-26
-1.1911e-26
-5.22862e-27
-2.23452e-27
-9.33165e-28
-3.8171e-28
-1.53149e-28
-6.03088e-29
-2.33094e-29
-8.83626e-30
-3.28058e-30
-1.18981e-30
-4.19816e-31
-1.43144e-31
-4.66241e-32
-1.41952e-32
-3.8505e-33
-8.04352e-34
-3.06111e-35
1.01004e-34
8.37155e-35
4.96912e-35
2.92188e-35
0.999402
0.992075
1.00499
1.04197
1.05333
0.985517
0.832682
0.632471
0.432958
0.267904
0.149918
0.0755083
0.0336919
0.0127521
0.00354353
0.000152007
-0.000728615
-0.000714589
-0.00048773
-0.000281477
-0.000145247
-6.84061e-05
-2.95299e-05
-1.15718e-05
-3.98289e-06
-1.0875e-06
-1.31046e-07
1.07136e-07
1.19177e-07
8.15097e-08
4.65753e-08
2.39751e-08
1.14497e-08
5.13988e-09
2.17946e-09
8.71897e-10
3.2643e-10
1.12113e-10
3.36403e-11
7.53458e-12
1.41795e-13
-1.25088e-12
-1.0652e-12
-6.58613e-13
-3.5467e-13
-1.75812e-13
-8.21656e-14
-3.66402e-14
-1.56871e-14
-6.46555e-15
-2.56524e-15
-9.7692e-16
-3.54697e-16
-1.21124e-16
-3.78137e-17
-1.00546e-17
-1.72693e-18
3.05439e-19
5.3932e-19
3.84677e-19
2.20091e-19
1.13116e-19
5.4387e-20
2.49348e-20
1.10137e-20
4.71482e-21
1.96289e-21
7.96153e-22
3.14753e-22
1.21194e-22
4.53488e-23
1.64213e-23
5.71196e-24
1.88319e-24
5.73085e-25
1.51127e-25
2.75559e-26
-2.48252e-27
-6.40802e-27
-4.68539e-27
-2.68686e-27
-1.37847e-27
-6.61863e-28
-3.03676e-28
-1.34656e-28
-5.80937e-29
-2.44883e-29
-1.01132e-29
-4.09884e-30
-1.63189e-30
-6.38452e-31
-2.454e-31
-9.25894e-32
-3.42368e-32
-1.23743e-32
-4.35334e-33
-1.48059e-33
-4.81189e-34
-1.46236e-34
-2.86831e-35
0.999602
0.992938
1.00308
1.03427
1.0463
0.994306
0.869005
0.69514
0.509469
0.342874
0.212333
0.121098
0.0634864
0.0303779
0.0130309
0.00478948
0.00130374
5.54359e-05
-0.000262509
-0.000257382
-0.000176638
-0.000103129
-5.42095e-05
-2.6231e-05
-1.17749e-05
-4.89265e-06
-1.85538e-06
-6.17957e-07
-1.60761e-07
-1.47968e-08
1.94536e-08
1.97835e-08
1.32235e-08
7.49529e-09
3.85542e-09
1.8497e-09
8.38339e-10
3.60913e-10
1.47663e-10
5.71619e-11
2.06947e-11
6.82701e-12
1.92206e-12
3.61019e-13
-4.76134e-14
-1.04751e-13
-7.84273e-14
-4.62775e-14
-2.43315e-14
-1.18968e-14
-5.51669e-15
-2.45106e-15
-1.0491e-15
-4.33652e-16
-1.73145e-16
-6.66353e-17
-2.45926e-17
-8.61711e-18
-2.81059e-18
-8.16606e-19
-1.85616e-19
-1.22305e-20
2.1437e-20
1.9404e-20
1.20825e-20
6.50489e-21
3.22785e-21
1.51675e-21
6.84295e-22
2.98751e-22
1.26803e-22
5.2467e-23
2.11917e-23
8.35757e-24
3.21567e-24
1.20457e-24
4.37612e-25
1.53168e-25
5.1048e-26
1.58408e-26
4.35128e-27
9.03215e-28
1.65693e-29
-1.32153e-28
-1.07544e-28
-6.41042e-29
-3.35923e-29
-1.6362e-29
-7.59112e-30
-3.39818e-30
-1.4789e-30
-6.2869e-31
-2.61857e-31
-1.07073e-31
-4.30344e-32
-1.70114e-32
-6.61446e-33
-2.52873e-33
-9.49117e-34
-3.28698e-34
0.999628
0.99354
1.00298
1.03064
1.04001
0.993034
0.882659
0.728278
0.558244
0.398011
0.264323
0.163754
0.0947241
0.0511333
0.0256765
0.0118975
0.00499659
0.00182265
0.000507285
3.88447e-05
-8.40029e-05
-8.71609e-05
-6.11692e-05
-3.6381e-05
-1.95212e-05
-9.68914e-06
-4.49542e-06
-1.95394e-06
-7.91406e-07
-2.93854e-07
-9.60265e-08
-2.44068e-08
-1.97624e-09
3.14226e-09
3.10687e-09
2.06229e-09
1.16809e-09
6.02747e-10
2.91084e-10
1.33269e-10
5.8198e-11
2.42845e-11
9.66297e-12
3.64191e-12
1.28113e-12
4.07234e-13
1.07347e-13
1.58298e-14
-6.16189e-15
-7.96046e-15
-5.50364e-15
-3.1424e-15
-1.62343e-15
-7.85775e-16
-3.6235e-16
-1.60628e-16
-6.87879e-17
-2.85247e-17
-1.14583e-17
-4.45207e-18
-1.66673e-18
-5.96734e-19
-2.01456e-19
-6.23031e-20
-1.64312e-20
-2.79186e-21
5.09156e-22
8.81755e-22
6.27516e-22
3.59285e-22
1.85146e-22
8.94103e-23
4.12424e-23
1.83609e-23
7.93774e-24
3.34471e-24
1.37664e-24
5.54029e-25
2.18041e-25
8.38429e-26
3.1438e-26
1.14543e-26
4.03086e-27
1.35596e-27
4.27694e-28
1.21352e-28
2.75403e-29
2.35002e-30
-2.56089e-30
-2.41014e-30
-1.50161e-30
-8.0485e-31
-3.97791e-31
-1.86587e-31
-8.42905e-32
-3.69847e-32
-1.58449e-32
-6.65063e-33
-2.73882e-33
-1.101e-33
0.999606
0.993839
1.00333
1.02936
1.03619
0.989563
0.885724
0.743185
0.585764
0.434136
0.302776
0.198897
0.123202
0.0720157
0.0397259
0.020652
0.0100801
0.00458254
0.00190852
0.000701697
0.000205184
2.65013e-05
-2.32297e-05
-2.76766e-05
-2.02521e-05
-1.23645e-05
-6.7908e-06
-3.45535e-06
-1.65064e-06
-7.44155e-07
-3.16443e-07
-1.26064e-07
-4.62535e-08
-1.50093e-08
-3.82065e-09
-3.36683e-10
4.62144e-10
4.65085e-10
3.10615e-10
1.76879e-10
9.18601e-11
4.47277e-11
2.0695e-11
9.16076e-12
3.89024e-12
1.58433e-12
6.16483e-13
2.27241e-13
7.79655e-14
2.39459e-14
5.89695e-15
6.04304e-16
-5.54046e-16
-5.67874e-16
-3.72256e-16
-2.07538e-16
-1.05831e-16
-5.08445e-17
-2.33555e-17
-1.0341e-17
-4.4334e-18
-1.84461e-18
-7.45285e-19
-2.92111e-19
-1.10744e-19
-4.03823e-20
-1.4018e-20
-4.54158e-21
-1.3149e-21
-2.99737e-22
-2.14007e-23
3.3048e-23
3.03193e-23
1.89723e-23
1.02566e-23
5.11349e-24
2.4165e-24
1.0978e-24
4.833e-25
2.07199e-25
8.67629e-26
3.55478e-26
1.42617e-26
5.60271e-27
2.15335e-27
8.08172e-28
2.95217e-28
1.04389e-28
3.54022e-29
1.1323e-29
3.29896e-30
7.99529e-31
1.0478e-31
-4.52115e-32
-5.27081e-32
-3.45826e-32
-1.89944e-32
-9.53062e-33
-4.51361e-33
-2.15689e-33
0.999582
0.993956
1.00364
1.0291
1.03433
0.986723
0.884998
0.748557
0.599512
0.455477
0.328482
0.224978
0.14643
0.0906367
0.0533865
0.0299307
0.0159638
0.00808606
0.00387496
0.0017439
0.00072652
0.000271789
8.44176e-05
1.56109e-05
-4.94107e-06
-8.13961e-06
-6.38866e-06
-4.04451e-06
-2.28271e-06
-1.19147e-06
-5.84795e-07
-2.72016e-07
-1.20212e-07
-5.0376e-08
-1.98717e-08
-7.25676e-09
-2.36155e-09
-6.14461e-10
-6.75292e-11
6.19136e-11
6.65532e-11
4.52921e-11
2.60794e-11
1.36726e-11
6.72246e-12
3.14485e-12
1.41038e-12
6.08569e-13
2.52868e-13
1.01003e-13
3.85904e-14
1.3962e-14
4.68746e-15
1.395e-15
3.20509e-16
1.70251e-17
-4.30087e-17
-3.87046e-17
-2.44469e-17
-1.33929e-17
-6.7638e-18
-3.23202e-18
-1.48082e-18
-6.55411e-19
-2.81426e-19
-1.175e-19
-4.77373e-20
-1.88606e-20
-7.23093e-21
-2.67866e-21
-9.5149e-22
-3.1958e-22
-9.86831e-23
-2.61632e-23
-4.60031e-24
6.67696e-25
1.31101e-24
9.48165e-25
5.47084e-25
2.83624e-25
1.37786e-25
6.39741e-26
2.86946e-26
1.25131e-26
5.32611e-27
2.21822e-27
9.05234e-28
3.62196e-28
1.4207e-28
5.45825e-29
2.05033e-29
7.50733e-30
2.66606e-30
9.1067e-31
2.94801e-31
8.78145e-32
2.23892e-32
3.68077e-33
-6.5972e-34
-1.56273e-33
0.999567
0.993989
1.00383
1.02916
1.0336
0.985008
0.883539
0.749737
0.60549
0.4669
0.344188
0.242675
0.163699
0.105688
0.0653385
0.0386969
0.0219616
0.0119422
0.00621727
0.00309321
0.00146545
0.000656858
0.00027523
0.000105251
3.47194e-05
8.1681e-06
-3.29493e-07
-2.14897e-06
-1.90441e-06
-1.26948e-06
-7.40829e-07
-3.97479e-07
-2.0033e-07
-9.58498e-08
-4.37493e-08
-1.90692e-08
-7.91697e-09
-3.10801e-09
-1.13591e-09
-3.73473e-10
-1.00701e-10
-1.41343e-11
7.38005e-12
9.09386e-12
6.39834e-12
3.74805e-12
1.98982e-12
9.89493e-13
4.68297e-13
2.12721e-13
9.31559e-14
3.94009e-14
1.60894e-14
6.32626e-15
2.38101e-15
8.48092e-16
2.79466e-16
8.08468e-17
1.7341e-17
1.08585e-20
-3.07023e-18
-2.54695e-18
-1.56675e-18
-8.47336e-19
-4.2491e-19
-2.0227e-19
-9.25326e-20
-4.09661e-20
-1.76238e-20
-7.38417e-21
-3.01591e-21
-1.20038e-21
-4.64858e-22
-1.74588e-22
-6.32278e-23
-2.18573e-23
-7.07645e-24
-2.05958e-24
-4.80007e-25
-4.32611e-26
4.53576e-26
4.39063e-26
2.79103e-26
1.52241e-26
7.64401e-27
3.63687e-27
1.66399e-27
7.3833e-28
3.19346e-28
1.35082e-28
5.59936e-29
2.27714e-29
9.08968e-30
3.56068e-30
1.36761e-30
5.14161e-31
1.88671e-31
6.72652e-32
2.31316e-32
6.43551e-33
0.999559
0.993992
1.00392
1.02928
1.03338
0.984146
0.882376
0.749469
0.607627
0.472419
0.353014
0.253766
0.175549
0.116884
0.0749191
0.046241
0.027491
0.0157467
0.00869046
0.0046197
0.0023633
0.00116143
0.000546585
0.000244979
0.000103558
4.05352e-05
1.41203e-05
3.91622e-06
4.43345e-07
-4.66714e-07
-5.27177e-07
-3.7995e-07
-2.31546e-07
-1.28222e-07
-6.64239e-08
-3.2648e-08
-1.53351e-08
-6.90572e-09
-2.98209e-09
-1.23143e-09
-4.82933e-10
-1.77362e-10
-5.92133e-11
-1.6662e-11
-2.89708e-12
7.2281e-13
1.17962e-12
8.74858e-13
5.2514e-13
2.83315e-13
1.42752e-13
6.84016e-14
3.14705e-14
1.39762e-14
6.00709e-15
2.50047e-15
1.00681e-15
3.90817e-16
1.45283e-16
5.10818e-17
1.65705e-17
4.67729e-18
9.40055e-19
-4.92733e-20
-2.07168e-19
-1.62913e-19
-9.83453e-20
-5.26938e-20
-2.62914e-20
-1.24843e-20
-5.70727e-21
-2.52874e-21
-1.09024e-21
-4.58418e-22
-1.8818e-22
-7.54126e-23
-2.94705e-23
-1.12032e-23
-4.1249e-24
-1.46e-24
-4.90182e-25
-1.52061e-25
-4.09573e-26
-7.68922e-27
6.28806e-28
1.79277e-27
1.3441e-27
7.87164e-28
4.11966e-28
2.01682e-28
9.43243e-29
4.26255e-29
1.87386e-29
8.04757e-30
3.38557e-30
1.39757e-30
5.66633e-31
2.2572e-31
8.82888e-32
3.20606e-32
0.999556
0.993988
1.00395
1.02936
1.03335
0.983777
0.881667
0.748923
0.608126
0.474786
0.357581
0.260227
0.183121
0.124632
0.0820444
0.0522422
0.0321811
0.0191808
0.0110635
0.00617616
0.00333661
0.00174372
0.000880736
0.000429255
0.000201326
9.04529e-05
3.86304e-05
1.54666e-05
5.64687e-06
1.75817e-06
3.63681e-07
-5.48322e-08
-1.30288e-07
-1.07119e-07
-6.93448e-08
-3.99165e-08
-2.13147e-08
-1.07653e-08
-5.19454e-09
-2.40723e-09
-1.07374e-09
-4.60894e-10
-1.89858e-10
-7.45872e-11
-2.76035e-11
-9.38506e-12
-2.76104e-12
-5.70332e-13
3.96665e-14
1.43312e-13
1.15429e-13
7.16736e-14
3.94657e-14
2.01933e-14
9.80682e-15
4.57113e-15
2.05779e-15
8.97731e-16
3.80109e-16
1.56186e-16
6.21713e-17
2.38813e-17
8.78855e-18
3.05767e-18
9.79308e-19
2.70888e-19
5.14073e-20
-5.23936e-21
-1.34059e-20
-1.01758e-20
-6.06268e-21
-3.22736e-21
-1.60488e-21
-7.60983e-22
-3.47891e-22
-1.54331e-22
-6.66965e-23
-2.81441e-23
-1.16093e-23
-4.68212e-24
-1.8449e-24
-7.08928e-25
-2.64782e-25
-9.55859e-26
-3.30319e-26
-1.07353e-26
-3.16163e-27
-7.63362e-28
-8.9361e-29
5.51272e-29
5.94559e-29
3.88597e-29
2.14957e-29
1.08975e-29
5.22667e-30
2.4096e-30
1.07744e-30
4.69865e-31
2.00381e-31
8.2957e-32
0.999555
0.993984
1.00397
1.0294
1.03338
0.983644
0.881299
0.748482
0.60806
0.475643
0.359747
0.263736
0.187655
0.129659
0.0870064
0.0567019
0.0358859
0.0220564
0.0131664
0.00763418
0.00429991
0.00235264
0.00125019
0.000644963
0.000322752
0.000156445
7.32853e-05
3.30538e-05
1.42674e-05
5.83292e-06
2.21544e-06
7.49948e-07
2.01084e-07
1.99048e-08
-2.56698e-08
-2.77427e-08
-1.97106e-08
-1.19414e-08
-6.60873e-09
-3.437e-09
-1.70351e-09
-8.10779e-10
-3.72041e-10
-1.64857e-10
-7.05144e-11
-2.90396e-11
-1.14509e-11
-4.27796e-12
-1.48315e-12
-4.5551e-13
-1.07671e-13
-5.47228e-15
1.58232e-14
1.46064e-14
9.5102e-15
5.37507e-15
2.80079e-15
1.38058e-15
6.52316e-16
2.97631e-16
1.31692e-16
5.66338e-17
2.36888e-17
9.63135e-18
3.79812e-18
1.44657e-18
5.28057e-19
1.822e-19
5.77842e-20
1.57398e-20
2.85447e-21
-4.07257e-22
-8.39034e-22
-6.22683e-22
-3.67813e-22
-1.94984e-22
-9.67709e-23
-4.58622e-23
-2.09792e-23
-9.32164e-24
-4.03878e-24
-1.71033e-24
-7.08798e-25
-2.87573e-25
-1.14174e-25
-4.42982e-26
-1.67538e-26
-6.15034e-27
-2.176e-27
-7.32837e-28
-2.29408e-28
-6.32237e-29
-1.28577e-29
1.44025e-31
2.25807e-30
1.80064e-30
1.07907e-30
5.7226e-31
2.82422e-31
1.38938e-31
0.999555
0.993981
1.00397
1.02942
1.03341
0.98361
0.881131
0.748208
0.607874
0.475864
0.360675
0.265513
0.190208
0.132734
0.0902646
0.0598226
0.0386357
0.0243132
0.0149073
0.00890548
0.00518361
0.00293999
0.00162483
0.000874973
0.000459002
0.000234468
0.00011654
5.62939e-05
2.6376e-05
1.19515e-05
5.21263e-06
2.17145e-06
8.52348e-07
3.07015e-07
9.532e-08
2.043e-08
-1.98859e-09
-6.213e-09
-5.21885e-09
-3.40566e-09
-1.97269e-09
-1.06112e-09
-5.41089e-10
-2.64402e-10
-1.24555e-10
-5.67476e-11
-2.5036e-11
-1.06909e-11
-4.40864e-12
-1.74721e-12
-6.59585e-13
-2.33214e-13
-7.45275e-14
-1.9567e-14
-2.61872e-15
1.46722e-15
1.75224e-15
1.22222e-15
7.14708e-16
3.80698e-16
1.90842e-16
9.14896e-17
4.23179e-17
1.89833e-17
8.28319e-18
3.5207e-18
1.458e-18
5.8768e-19
2.29994e-19
8.70001e-20
3.15585e-20
1.08214e-20
3.40822e-21
9.1894e-22
1.61804e-22
-2.74213e-23
-5.10581e-23
-3.74172e-23
-2.19951e-23
-1.16346e-23
-5.77004e-24
-2.73534e-24
-1.25267e-24
-5.57663e-25
-2.42273e-25
-1.02962e-25
-4.28621e-26
-1.74879e-26
-6.99171e-27
-2.73649e-27
-1.04649e-27
-3.8976e-28
-1.40626e-28
-4.87154e-29
-1.5945e-29
-4.77273e-30
-1.2021e-30
-1.7698e-31
5.61258e-32
1.00372e-31
0.999554
0.99398
1.00397
1.02943
1.03342
0.983608
0.881063
0.748061
0.607719
0.475861
0.36102
0.266349
0.191563
0.134515
0.0922924
0.0618915
0.0405669
0.0259859
0.0162654
0.00994723
0.00594317
0.003469
0.00197818
0.00110208
0.000599833
0.000318922
0.000165608
8.39556e-05
4.15243e-05
2.00166e-05
9.38926e-06
4.2755e-06
1.88308e-06
7.9757e-07
3.21749e-07
1.21501e-07
4.14343e-08
1.16016e-08
1.66297e-09
-9.71098e-10
-1.23511e-09
-9.11959e-10
-5.62949e-10
-3.15773e-10
-1.66289e-10
-8.35348e-11
-4.03808e-11
-1.88774e-11
-8.55718e-12
-3.76519e-12
-1.60741e-12
-6.64489e-13
-2.64907e-13
-1.01093e-13
-3.64313e-14
-1.20656e-14
-3.43954e-15
-6.6382e-16
8.13408e-17
1.94728e-16
1.51151e-16
9.2539e-17
5.06551e-17
2.58938e-17
1.26123e-17
5.91732e-18
2.691e-18
1.19065e-18
5.13632e-19
2.16221e-19
8.8808e-20
3.55436e-20
1.38252e-20
5.20169e-21
1.87795e-21
6.41187e-22
2.01104e-22
5.39561e-23
9.39323e-24
-1.67887e-24
-3.03107e-24
-2.21165e-24
-1.29805e-24
-6.86336e-25
-3.40501e-25
-1.61578e-25
-7.41139e-26
-3.30667e-26
-1.44065e-26
-6.1443e-27
-2.56899e-27
-1.05373e-27
-4.24022e-28
-1.67283e-28
-6.46089e-29
-2.43687e-29
-8.93956e-30
-3.16876e-30
-1.07433e-30
-2.76465e-31
0.999554
0.993979
1.00397
1.02944
1.03343
0.983614
0.881041
0.74799
0.607619
0.475805
0.361118
0.266708
0.19224
0.135494
0.0934932
0.063197
0.0418571
0.0271638
0.0172703
0.0107554
0.00655984
0.00391792
0.0022913
0.00131208
0.000735679
0.000403888
0.000217101
0.000114247
5.88462e-05
2.96572e-05
1.46162e-05
7.03804e-06
3.30694e-06
1.51332e-06
6.72559e-07
2.89033e-07
1.19287e-07
4.67314e-08
1.70027e-08
5.47539e-09
1.34843e-09
5.92568e-11
-2.31888e-10
-2.22051e-10
-1.51572e-10
-9.00027e-11
-4.92986e-11
-2.55456e-11
-1.26864e-11
-6.0825e-12
-2.82745e-12
-1.27727e-12
-5.61233e-13
-2.39788e-13
-9.94502e-14
-3.99015e-14
-1.5393e-14
-5.64793e-15
-1.93065e-15
-5.87437e-16
-1.38925e-16
-8.29732e-18
1.89989e-17
1.77796e-17
1.16168e-17
6.58506e-18
3.44547e-18
1.70849e-18
8.1385e-19
3.75324e-19
1.6835e-19
7.36502e-20
3.14729e-20
1.31437e-20
5.36202e-21
2.1337e-21
8.25891e-22
3.09475e-22
1.11359e-22
3.79252e-23
1.18765e-23
3.18696e-24
5.58712e-25
-9.4868e-26
-1.7589e-25
-1.28745e-25
-7.5671e-26
-4.00591e-26
-1.99009e-26
-9.45915e-27
-4.34757e-27
-1.9445e-27
-8.49702e-28
-3.63682e-28
-1.52705e-28
-6.29525e-29
-2.54856e-29
-1.01281e-29
-3.94707e-30
-1.38986e-30
0.999555
0.993979
1.00397
1.02944
1.03344
0.98362
0.881035
0.74796
0.607563
0.475753
0.361128
0.266846
0.192557
0.136005
0.0941716
0.0639841
0.0426805
0.0279556
0.0179794
0.0113523
0.00703573
0.00427933
0.00255397
0.00149549
0.000859113
0.000484174
0.000267689
0.000145186
7.72432e-05
4.03082e-05
2.06272e-05
1.03481e-05
5.08688e-06
2.44847e-06
1.15276e-06
5.30055e-07
2.37514e-07
1.03377e-07
4.34869e-08
1.75393e-08
6.68909e-09
2.34817e-09
7.11987e-10
1.4859e-10
-1.55873e-11
-4.5232e-11
-3.74798e-11
-2.42785e-11
-1.40154e-11
-7.54014e-12
-3.85905e-12
-1.89967e-12
-9.05176e-13
-4.19058e-13
-1.8889e-13
-8.29677e-14
-3.55037e-14
-1.4781e-14
-5.96988e-15
-2.3275e-15
-8.68399e-16
-3.05216e-16
-9.78502e-17
-2.63581e-17
-4.17864e-18
1.36477e-18
1.94493e-18
1.4036e-18
8.33699e-19
4.48919e-19
2.2726e-19
1.1008e-19
5.15161e-20
2.34278e-20
1.03898e-20
4.50285e-21
1.90912e-21
7.92025e-22
3.21314e-22
1.27267e-22
4.90747e-23
1.83348e-23
6.5839e-24
2.24018e-24
7.02113e-25
1.89313e-25
3.39722e-26
-4.9295e-27
-9.98662e-27
-7.38702e-27
-4.36064e-27
-2.31484e-27
-1.15263e-27
-5.49104e-28
-2.52989e-28
-1.1346e-28
-4.97329e-29
-2.13626e-29
-9.00298e-30
-3.59612e-30
0.999555
0.993979
1.00397
1.02944
1.03344
0.983623
0.881036
0.747948
0.607535
0.475719
0.361113
0.266889
0.192695
0.136258
0.0945378
0.0644387
0.0431844
0.0284658
0.0184585
0.011774
0.0073866
0.00455688
0.00276382
0.00164776
0.000965517
0.000555991
0.000314622
0.000174948
9.55911e-05
5.13212e-05
2.70722e-05
1.40299e-05
7.14185e-06
3.57007e-06
1.75176e-06
8.43228e-07
3.9785e-07
1.8377e-07
8.29589e-08
3.651e-08
1.56073e-08
6.44422e-09
2.54665e-09
9.47774e-10
3.21541e-10
9.15603e-11
1.53003e-11
-5.32287e-12
-7.96884e-12
-6.05148e-12
-3.77845e-12
-2.13588e-12
-1.13343e-12
-5.74589e-13
-2.80954e-13
-1.33257e-13
-6.15185e-14
-2.76961e-14
-1.21701e-14
-5.21901e-15
-2.18182e-15
-8.87112e-16
-3.49388e-16
-1.3238e-16
-4.76746e-17
-1.59468e-17
-4.70177e-18
-1.0344e-18
-5.40893e-21
1.87998e-19
1.61137e-19
1.02266e-19
5.71322e-20
2.96478e-20
1.46348e-20
6.95813e-21
3.20969e-21
1.44289e-21
6.33871e-22
2.72563e-22
1.14805e-22
4.73671e-23
1.91289e-23
7.54869e-24
2.9025e-24
1.08227e-24
3.88272e-25
1.32175e-25
4.15483e-26
1.13021e-26
2.10278e-27
-2.2946e-28
-5.54817e-28
-4.17967e-28
-2.48528e-28
-1.32498e-28
-6.61884e-29
-3.16225e-29
-1.45951e-29
-6.57503e-30
0.999555
0.993979
1.00397
1.02944
1.03344
0.983625
0.881037
0.747944
0.607523
0.475699
0.361097
0.266897
0.192749
0.136377
0.0947269
0.0646907
0.0434807
0.0287818
0.0187696
0.0120602
0.00763477
0.00476114
0.00292425
0.00176855
0.00105302
0.000617173
0.000356017
0.000202112
0.000112913
6.20746e-05
3.35803e-05
1.78749e-05
9.36183e-06
4.8239e-06
2.44506e-06
1.2188e-06
5.97276e-07
2.87613e-07
1.35998e-07
6.30851e-08
2.8669e-08
1.27399e-08
5.52083e-09
2.32371e-09
9.44059e-10
3.66449e-10
1.33418e-10
4.38404e-11
1.17089e-11
1.42896e-12
-1.14031e-12
-1.31728e-12
-9.44744e-13
-5.74419e-13
-3.19622e-13
-1.67842e-13
-8.44692e-14
-4.1094e-14
-1.94265e-14
-8.95198e-15
-4.02859e-15
-1.77202e-15
-7.61847e-16
-3.19879e-16
-1.30921e-16
-5.20619e-17
-2.00055e-17
-7.36007e-18
-2.54932e-18
-8.03038e-19
-2.10129e-19
-2.97695e-20
1.36558e-20
1.71395e-20
1.20496e-20
7.07433e-21
3.78578e-21
1.91046e-21
9.24427e-22
4.32927e-22
1.97338e-22
8.78595e-23
3.82915e-23
1.63568e-23
6.85174e-24
2.81412e-24
1.13227e-24
4.4554e-25
1.70963e-25
6.36766e-26
2.28455e-26
7.79054e-27
2.46057e-27
6.77482e-28
1.31826e-28
-8.80901e-30
-3.01322e-29
-2.33259e-29
-1.3976e-29
-8.05707e-30
0.999555
0.993979
1.00397
1.02944
1.03344
0.983626
0.881038
0.747944
0.607517
0.475689
0.361085
0.266894
0.192768
0.136429
0.09482
0.064825
0.0436485
0.0289705
0.0189643
0.0122473
0.00780374
0.0049057
0.00304209
0.00186051
0.001122
0.000667059
0.000390907
0.000225765
0.00012849
7.2057e-05
3.98156e-05
2.16762e-05
1.16266e-05
6.14396e-06
3.19846e-06
1.6402e-06
8.28426e-07
4.12029e-07
2.01741e-07
9.72028e-08
4.60614e-08
2.14505e-08
9.80665e-09
4.39496e-09
1.92687e-09
8.24032e-10
3.42248e-10
1.37124e-10
5.24074e-11
1.87166e-11
5.97484e-12
1.49843e-12
1.12629e-13
-2.07003e-13
-2.08162e-13
-1.43578e-13
-8.56214e-14
-4.70809e-14
-2.45281e-14
-1.22767e-14
-5.9505e-15
-2.80662e-15
-1.29204e-15
-5.81577e-16
-2.5619e-16
-1.10458e-16
-4.65852e-17
-1.91896e-17
-7.70044e-18
-2.99726e-18
-1.12355e-18
-4.00638e-19
-1.32716e-19
-3.87038e-20
-8.35253e-21
5.72097e-23
1.59252e-21