/*--------------------------------*- C++ -*----------------------------------*\
  =========                 |
  \\      /  F ield         | OpenFOAM: The Open Source CFD Toolbox
   \\    /   O peration     | Website:  https://openfoam.org
    \\  /    A nd           | Version:  7
     \\/     M anipulation  |
\*---------------------------------------------------------------------------*/
FoamFile
{
    version     2.0;
    format      ascii;
    class       volScalarField;
    location    "0.2";
    object      T;
}
// * * * * * * * * * * * * * * * * * * * * * * * * * * * * * * * * * * * * * //

dimensions      [0 0 0 1 0 0 0];

internalField   nonuniform List<scalar> 
46572
(
0
0
0
0
0
0
0
0
0
0
0
0
0
0
0
0
0
0
0
0
0
0
0
0
0
0
0
0
0
0
0
0
0
0
0
0
0
0
0
0
0
0
0
0
0
0
0
0
0
0
0
0
0
0
0
0
0
0
0
0
0
0
0
0
0
0
0
0
0
0
0
0
0
0
0
0
0
0
0
0
0
0
0
0
0
0
0
0
0
0
0
0
0
0
0
0
0
0
0
0
0
0
0
0
0
0
0
0
0
0
0
0
0
0
0
0
0
0
0
0
0
0
0
0
0
0
0
0
0
0
0
0
0
0
0
0
0
0
0
0
0
0
0
0
0
0
0
0
0
0
0
0
0
0
0
0
0
0
0
0
0
0
0
0
0
0
0
0
0
0
0
0
0
0
0
0
0
0
0
0
0
0
0
0
0
0
0
0
0
0
0
0
0
0
0
0
0
0
0
0
0
0
0
0
0
0
0
0
0
0
0
0
0
0
0
0
0
0
0
0
0
0
0
0
0
0
0
0
0
0
0
0
0
0
0
0
0
0
0
0
0
0
0
0
0
0
0
0
0
0
0
0
0
0
0
0
0
0
0
0
0
0
0
0
0
0
0
0
0
0
0
0
0
0
0
0
0
0
0
0
0
0
0
0
0
0
0
0
0
0
0
0
0
0
0
0
0
0
0
0
0
0
0
0
0
0
0
0
0
0
0
0
0
0
0
0
0
0
0
0
0
0
0
0
0
0
0
2.9773e-144
3.72162e-144
1.90605e-144
2.38256e-144
9.20598e-142
1.15075e-141
2.24646e-141
2.80808e-141
1.43217e-141
1.79022e-141
2.29429e-141
-3.64086e-141
3.29213e-139
3.9978e-139
9.59635e-139
1.14015e-138
1.93939e-137
2.1858e-137
1.30239e-137
1.21575e-137
1.79842e-136
2.20685e-136
1.17747e-136
1.44011e-136
9.28946e-137
1.0728e-136
1.60347e-136
1.94862e-136
9.68638e-137
1.20157e-136
7.28631e-137
3.85877e-137
2.07707e-134
2.52627e-134
1.30808e-134
1.57119e-134
8.53217e-134
-2.67671e-133
3.14757e-132
3.31017e-132
4.09144e-132
4.70099e-132
5.27643e-132
4.74536e-132
4.96009e-132
-3.99279e-133
8.50409e-131
1.02469e-130
1.13636e-130
-1.56453e-130
7.03794e-130
6.75011e-130
4.69366e-130
4.50979e-130
3.44167e-130
1.39951e-130
1.87755e-129
-6.28867e-129
6.59971e-128
6.22466e-128
4.68697e-127
5.38037e-127
2.98925e-126
3.32522e-126
1.97284e-126
2.19812e-126
1.3042e-126
1.43684e-126
5.01151e-126
5.08647e-126
9.03353e-126
1.04969e-125
5.96397e-126
6.90139e-126
4.27417e-126
3.4242e-126
8.32298e-126
8.26675e-126
7.0253e-126
6.18472e-126
4.90456e-126
3.90468e-126
7.3069e-126
-9.5453e-126
3.65727e-124
3.51776e-124
1.05892e-122
9.84758e-123
7.18407e-123
6.70176e-123
5.02355e-123
4.76665e-123
3.52908e-123
3.1867e-123
3.51389e-122
3.27153e-122
7.08592e-122
8.05691e-122
4.57631e-122
5.16937e-122
3.41531e-122
1.85196e-122
9.44696e-122
8.34801e-122
1.15781e-121
1.2118e-121
1.54082e-121
1.2542e-121
1.65937e-121
-1.4446e-121
4.34188e-121
2.95614e-121
1.45294e-120
1.14693e-120
1.00749e-120
8.18209e-121
1.47741e-120
1.56805e-120
9.9237e-121
1.05284e-120
6.98701e-121
6.08127e-121
4.18185e-120
4.76238e-120
2.6598e-120
3.00426e-120
2.36982e-120
-6.0249e-121
8.14177e-120
6.23527e-120
9.9475e-120
9.84793e-120
8.82555e-120
8.52864e-120
6.56144e-120
3.41e-120
8.17983e-120
6.82625e-120
6.98191e-120
-2.53968e-121
1.05657e-119
7.49931e-120
1.13393e-119
1.0554e-119
7.80082e-120
6.61559e-120
7.24433e-120
6.96308e-120
8.2937e-120
8.7636e-120
2.99626e-119
-6.60089e-120
1.34318e-118
1.38942e-118
9.55747e-119
7.08835e-119
6.96851e-119
5.17413e-119
5.42268e-118
4.61124e-118
1.04599e-117
1.15955e-117
6.80078e-118
7.46795e-118
4.66317e-118
4.32101e-118
5.98423e-118
6.00943e-118
7.38861e-118
7.16461e-118
2.4751e-117
2.03627e-117
1.89351e-117
7.03733e-118
1.38435e-117
6.43982e-118
1.06576e-117
2.31223e-118
8.09239e-118
2.56141e-118
1.86825e-117
1.46067e-117
1.32747e-117
1.07351e-117
5.49861e-117
4.99308e-117
9.87265e-117
1.10149e-116
6.49343e-117
7.24659e-117
4.393e-117
3.90815e-117
5.61642e-117
5.38609e-117
5.57032e-117
5.90693e-117
4.2481e-117
4.29547e-117
3.05013e-117
2.42076e-117
7.85051e-117
8.72321e-117
4.97754e-117
5.51092e-117
3.99166e-117
4.43428e-117
7.56951e-117
8.38502e-117
5.02729e-117
5.64277e-117
3.22711e-117
3.38088e-117
7.20181e-117
8.38761e-117
4.39586e-117
5.08278e-117
2.85091e-117
2.89327e-117
2.75014e-117
2.82348e-117
2.43638e-117
2.67659e-117
1.66523e-117
1.81326e-117
1.14064e-117
1.1296e-117
2.02066e-117
2.36385e-117
1.31585e-117
1.38328e-117
1.24011e-117
1.32566e-117
8.75159e-118
9.58913e-118
5.43127e-118
5.82528e-118
3.37873e-118
3.53585e-118
4.94339e-118
5.51233e-118
1.63817e-117
1.56731e-117
1.10234e-117
1.05659e-117
7.24225e-118
6.95043e-118
4.84223e-118
4.72496e-118
1.11546e-117
1.10523e-117
2.03434e-117
2.32895e-117
1.34729e-117
1.55702e-117
8.6316e-118
7.62076e-118
5.64335e-118
4.57474e-118
-1.17014e-117
6.76122e-118
4.74687e-112
-3.06736e-114
7.13046e-108
3.90951e-108
3.29916e-104
4.11959e-104
2.10613e-104
2.62404e-104
3.81174e-103
-2.70771e-23
-1.5642e-23
-1.84976e-25
1.80493e-27
-1.36477e-29
-3.08234e-31
4.57831e-33
3.96107e-35
-8.4207e-37
-6.31891e-39
1.11069e-40
9.96852e-43
-7.35804e-45
-6.23711e-47
2.13881e-49
4.32186e-52
-3.12208e-54
-4.05721e-56
-4.18431e-58
-1.15441e-60
8.19656e-63
3.32463e-65
9.41423e-68
9.4916e-70
6.05041e-72
1.41398e-74
7.45821e-78
5.34529e-82
1.5584e-87
2.71649e-96
-3.36158e-23
0.173338
0.179209
0.172818
0.163857
0.148588
0.11879
0.0799502
0.0317809
-0.0101446
-0.0385691
-0.0547527
-0.0611677
-0.0568836
-0.0481724
-0.0376299
-0.0292873
-0.0212154
-0.0145653
-0.00975616
-0.00645464
-0.00418346
-0.00261169
-0.00155297
-0.0009457
-0.000551481
-0.000315296
-0.000177915
-0.000101032
-5.54412e-05
-3.02415e-05
-1.60965e-05
-8.75999e-06
-4.6537e-06
-2.40245e-06
-1.23442e-06
-6.38118e-07
-3.29504e-07
-1.65639e-07
-8.13886e-08
-4.0584e-08
-1.97065e-08
-9.51342e-09
-4.59381e-09
-2.14198e-09
-1.03322e-09
-4.88266e-10
-2.27675e-10
-1.06415e-10
-4.91594e-11
-2.22516e-11
-1.00658e-11
-4.59486e-12
-2.09562e-12
-9.32529e-13
-4.07795e-13
-1.81027e-13
-7.85455e-14
-3.38542e-14
-1.46768e-14
-6.17112e-15
-2.66938e-15
-1.13182e-15
-4.74828e-16
-1.98251e-16
-8.31213e-17
-3.48753e-17
-1.43536e-17
-5.78053e-18
-2.37795e-18
-9.55374e-19
-3.80468e-19
-1.5081e-19
-6.03963e-20
-2.35952e-20
-9.23966e-21
-3.55299e-21
-1.39094e-21
-5.32904e-22
-2.07281e-22
-6.92123e-23
-4.11415e-23
-0.000362745
0.000295096
9.19601e-05
-0.00300101
-3.45294e-05
0.01952
0.055459
0.0982067
0.13605
0.164755
0.164128
0.0482508
0.000152506
-9.32176e-05
-0.000102942
-0.000137443
-0.000119706
-8.69794e-05
-8.51186e-05
-8.1002e-05
-0.000118986
9.54315e-05
-3.79672e-05
-0.00110901
-0.000833011
0.000220454
-0.000544594
0.000813601
0.000388226
0.000467904
0.000564937
-0.000953441
-0.000352112
-0.00273751
-0.00225796
-0.00305772
-0.004286
-0.00103758
-0.00550811
0.00492801
-0.00463399
0.0150316
-0.00177504
0.0295019
0.00406268
0.0468595
0.0118897
0.0663235
0.0202999
0.0854534
0.0295633
0.105882
0.0371005
0.123077
0.0445992
0.138408
0.0475682
0.153852
0.0494324
0.165118
0.0496912
0.155208
0.0490796
0.162967
0.0402799
0.161149
0.0346768
0.159563
0.0231115
0.156437
0.0142967
0.152198
0.00493348
0.148383
-0.00454758
0.142066
-0.0120406
0.13524
-0.0212515
0.122853
-0.0288412
0.109016
-0.0396009
0.092775
-0.0513981
0.072102
-0.0626364
0.0515721
-0.0757282
0.0292255
-0.0879941
0.0073041
-0.0986136
-0.00861152
-0.107729
-0.0277129
-0.113681
-0.0381857
-0.116913
-0.0469467
-0.116913
-0.054393
-0.11547
-0.0561488
-0.110027
-0.0580723
-0.104836
-0.058751
-0.0986488
-0.056419
-0.0906431
-0.0529477
-0.0820231
-0.0481321
-0.0730534
-0.0437622
-0.0646997
-0.0391424
-0.0563622
-0.0335982
-0.0481808
-0.029647
-0.0413767
-0.0249465
-0.0346811
-0.0209378
-0.0289045
-0.0177833
-0.0241852
-0.0148901
-0.0200449
-0.0120796
-0.0162818
-0.0100048
-0.0133265
-0.00813386
-0.0107736
-0.00657746
-0.00865913
-0.00525337
-0.00689597
-0.00418373
-0.00548943
-0.00333945
-0.00434548
-0.00260486
-0.00339671
-0.00207934
-0.00267826
-0.00159827
-0.00206759
-0.00123321
-0.00159283
-0.00096131
-0.00123622
-0.000745383
-0.000954363
-0.000563367
-0.000723652
-0.000436693
-0.000555584
-0.000327748
-0.000417786
-0.000245414
-0.000313628
-0.000186611
-0.000237253
-0.000137571
-0.000175309
-0.000103603
-0.000131847
-7.82486e-05
-9.92994e-05
-5.82781e-05
-7.39274e-05
-4.33068e-05
-5.48374e-05
-3.17941e-05
-4.03488e-05
-2.35657e-05
-2.98493e-05
-1.7455e-05
-2.20376e-05
-1.26269e-05
-1.59922e-05
-9.33811e-06
-1.17728e-05
-6.72493e-06
-8.49671e-06
-4.85086e-06
-6.13044e-06
-3.54274e-06
-4.45988e-06
-2.51082e-06
-3.17192e-06
-1.82091e-06
-2.29772e-06
-1.32334e-06
-1.66783e-06
-9.51459e-07
-1.19833e-06
-6.8237e-07
-8.58731e-07
-4.86616e-07
-6.12387e-07
-3.46562e-07
-4.36737e-07
-2.47872e-07
-3.11765e-07
-1.74678e-07
-2.19999e-07
-1.25195e-07
-1.57009e-07
-8.7412e-08
-1.09929e-07
-6.12696e-08
-7.7044e-08
-4.33261e-08
-5.44281e-08
-3.06118e-08
-3.84028e-08
-2.11806e-08
-2.66328e-08
-1.49477e-08
-1.87444e-08
-1.0434e-08
-1.30799e-08
-7.27082e-09
-9.11412e-09
-5.04148e-09
-6.32453e-09
-3.49657e-09
-4.38766e-09
-2.43613e-09
-3.05312e-09
-1.67539e-09
-2.10106e-09
-1.16726e-09
-1.45995e-09
-7.93538e-10
-9.94688e-10
-5.41271e-10
-6.7873e-10
-3.72921e-10
-4.67169e-10
-2.56781e-10
-3.21404e-10
-1.73464e-10
-2.17454e-10
-1.19398e-10
-1.49443e-10
-8.04317e-11
-1.00796e-10
-5.42571e-11
-6.80271e-11
-3.70019e-11
-4.63125e-11
-2.46291e-11
-3.08803e-11
-1.67256e-11
-2.09631e-11
-1.13843e-11
-1.4264e-11
-7.68086e-12
-9.62137e-12
-5.17042e-12
-6.47553e-12
-3.45811e-12
-4.3331e-12
-2.32404e-12
-2.91292e-12
-1.56539e-12
-1.95987e-12
-1.03387e-12
-1.29639e-12
-6.96721e-13
-8.71816e-13
-4.59203e-13
-5.75424e-13
-3.03767e-13
-3.80697e-13
-2.02857e-13
-2.54117e-13
-1.3456e-13
-1.68528e-13
-8.81402e-14
-1.10492e-13
-5.87031e-14
-7.35205e-14
-3.87531e-14
-4.85293e-14
-2.55599e-14
-3.20029e-14
-1.67902e-14
-2.10308e-14
-1.10188e-14
-1.38042e-14
-7.26569e-15
-9.09608e-15
-4.72997e-15
-5.92485e-15
-3.12015e-15
-3.90422e-15
-2.01885e-15
-2.52848e-15
-1.30789e-15
-1.63833e-15
-8.537e-16
-1.06885e-15
-5.57647e-16
-6.97929e-16
-3.58245e-16
-4.48747e-16
-2.33853e-16
-2.92739e-16
-1.51148e-16
-1.89195e-16
-9.76038e-17
-1.22173e-16
-6.28323e-17
-7.86519e-17
-4.03972e-17
-5.05906e-17
-2.60943e-17
-3.26601e-17
-1.65899e-17
-2.07755e-17
-1.04924e-17
-1.31381e-17
-6.7726e-18
-8.47856e-18
-4.33688e-18
-5.42942e-18
-2.77671e-18
-3.47607e-18
-1.77857e-18
-2.22573e-18
-1.11997e-18
-1.40239e-18
-7.17013e-19
-8.97184e-19
-4.50317e-19
-5.6361e-19
-2.8307e-19
-3.5447e-19
-1.79564e-19
-2.24745e-19
-1.1164e-19
-1.39775e-19
-7.05781e-20
-8.8363e-20
-4.47037e-20
-5.59612e-20
-2.81062e-20
-3.51828e-20
-1.76475e-20
-2.20903e-20
-1.10531e-20
-1.38372e-20
-6.90123e-21
-8.64072e-21
-4.3303e-21
-5.41915e-21
-2.67532e-21
-3.34938e-21
-1.6815e-21
-2.10435e-21
-1.04449e-21
-1.30724e-21
-6.50645e-22
-8.14184e-22
-4.04464e-22
-5.05873e-22
-2.47783e-22
-3.09795e-22
-1.48759e-22
-1.86146e-22
-9.30567e-23
-1.16491e-22
-6.09308e-23
-3.90253e-23
-7.58591e-23
3.09816e-45
5.16892e-43
-1.47816e-40
-7.16928e-37
-3.91821e-35
8.11185e-33
-5.53508e-31
-6.37985e-29
9.60986e-27
-7.18252e-25
-7.79203e-24
-1.94426e-24
-1.57647e-23
0
0
0
0
0
0
0
0
0
0
0
0
0
0
9.56711e-41
-1.49226e-37
1.83615e-36
9.43917e-37
1.59792e-34
2.04476e-33
8.30997e-32
4.13518e-32
6.62209e-31
4.25904e-31
2.15158e-31
1.64933e-31
7.75181e-32
3.79929e-32
7.7279e-32
4.39615e-32
6.42012e-31
8.0723e-31
5.98879e-31
5.10605e-31
6.44958e-31
7.03542e-31
1.28201e-30
8.51866e-31
1.23755e-30
7.43017e-31
5.28424e-31
4.39773e-31
3.20693e-31
2.02488e-31
2.29764e-31
2.72352e-31
3.75074e-31
2.37623e-31
1.71941e-31
1.25209e-31
8.53788e-32
5.64515e-32
3.79406e-32
2.10203e-32
1.11973e-32
5.22732e-33
2.60516e-33
8.879e-34
2.95467e-34
9.67859e-35
-1.00298e-34
-6.14992e-35
-3.41552e-35
-2.28909e-35
-1.51042e-35
-1.1976e-35
-6.20468e-36
-2.93291e-36
-1.75827e-36
-8.23877e-37
-4.24733e-37
-1.78102e-37
-7.49328e-38
-2.85659e-38
-1.18762e-38
-4.92565e-39
-5.60296e-40
1.71682e-40
1.5505e-40
1.47981e-40
1.64447e-40
1.69289e-40
8.32661e-41
4.10963e-41
2.37111e-41
1.09591e-41
5.57338e-42
2.32165e-42
9.88289e-43
4.91944e-43
2.04275e-43
8.31897e-44
3.69356e-44
1.23073e-44
4.64167e-45
1.80409e-45
5.2867e-46
-6.11985e-47
-4.06777e-47
2.07334e-45
4.76406e-103
-3.68698e-26
-1.2955e-26
-6.22359e-24
-2.64353e-24
-4.02177e-25
3.86318e-27
1.27352e-28
-2.67528e-30
4.52468e-33
5.31949e-34
-1.55065e-36
-1.28222e-37
3.99254e-40
1.47203e-41
7.1099e-45
-8.72685e-46
-1.5332e-48
1.77306e-50
-7.53761e-54
-3.91238e-55
-4.22628e-57
-2.99767e-59
2.30551e-62
6.52153e-64
1.56832e-66
9.33422e-69
8.34677e-71
3.423e-73
3.8767e-76
8.8312e-80
1.46832e-84
8.95168e-92
-2.54297e-06
7.06233e-100
0.17884
0.175831
0.16859
0.1579
0.136346
0.101603
0.0562074
0.0130552
-0.0231551
-0.0509764
-0.0578941
-0.0574414
-0.0518442
-0.041853
-0.0334723
-0.0246382
-0.0172552
-0.0122332
-0.00797955
-0.00521743
-0.00326091
-0.00197172
-0.00121263
-0.000708997
-0.000410781
-0.000240906
-0.00013315
-7.35264e-05
-4.05242e-05
-2.16893e-05
-1.18743e-05
-6.32609e-06
-3.28151e-06
-1.74629e-06
-8.87874e-07
-4.59522e-07
-2.30987e-07
-1.14129e-07
-5.77828e-08
-2.78358e-08
-1.34659e-08
-6.54827e-09
-3.11156e-09
-1.4885e-09
-7.1416e-10
-3.28987e-10
-1.56808e-10
-7.17051e-11
-3.25412e-11
-1.51337e-11
-6.80164e-12
-3.1092e-12
-1.38423e-12
-6.07589e-13
-2.73036e-13
-1.17564e-13
-5.09031e-14
-2.2127e-14
-9.4489e-15
-4.04996e-15
-1.74842e-15
-7.23172e-16
-3.1006e-16
-1.28192e-16
-5.39331e-17
-2.21959e-17
-8.98159e-18
-3.70525e-18
-1.49192e-18
-5.96612e-19
-2.42314e-19
-9.51923e-20
-3.73386e-20
-1.46659e-20
-5.64482e-21
-2.21792e-21
-8.51778e-22
-3.30066e-22
-1.33976e-22
-0.000177067
-0.00040804
0.000716479
-0.00149578
-0.0031711
0.00743597
0.0349082
0.0762784
0.118734
0.152591
0.0569883
1.52123e-05
-0.000131344
-0.000126496
-0.0001276
-9.73414e-05
-7.78792e-05
-8.63887e-05
-8.10397e-05
-0.000160452
9.92923e-35
8.88835e-05
1.71753e-41
-2.83095e-38
-7.72999e-36
-8.25485e-36
6.31156e-32
-8.56133e-30
1.25147e-28
8.34342e-26
-4.53506e-40
0
0
0
0
0
0
0
0
0
0
0
0
0
2.56693e-41
-4.00021e-40
4.40683e-37
2.36309e-36
2.99741e-37
7.36965e-34
6.0359e-33
5.51521e-32
4.25447e-32
4.4352e-31
2.77884e-31
1.50285e-31
1.12489e-31
5.07729e-32
3.37043e-32
5.62203e-32
6.0379e-32
6.02065e-31
6.524e-31
5.27085e-31
5.84901e-31
8.11541e-31
6.92798e-31
9.62628e-31
7.21742e-31
1.03853e-30
5.66309e-31
4.10903e-31
3.34722e-31
2.42418e-31
1.74493e-31
2.04129e-31
2.50728e-31
3.05073e-31
1.96948e-31
1.4752e-31
1.03608e-31
7.16796e-32
4.42299e-32
2.71105e-32
1.63097e-32
7.46572e-33
3.99209e-33
1.78135e-33
6.0245e-34
1.66904e-34
4.62705e-35
-8.16154e-35
-4.45143e-35
-2.8404e-35
-2.08003e-35
-1.11498e-35
-8.53939e-36
-4.24477e-36
-2.02277e-36
-1.22916e-36
-5.74673e-37
-2.70469e-37
-1.18838e-37
-4.85642e-38
-1.95112e-38
-8.00951e-39
-2.97513e-39
1.31403e-40
1.38225e-40
1.77005e-40
2.181e-40
1.15662e-40
1.19836e-40
6.06114e-41
2.94379e-41
1.57882e-41
7.35573e-42
3.58399e-42
1.48991e-42
6.53089e-43
3.17793e-43
1.26852e-43
5.80906e-44
2.00744e-44
7.88533e-45
2.87419e-45
9.1242e-46
2.80559e-46
-5.67326e-47
-1.12803e-46
2.3904e-102
0
-5.76331e-34
1.14692e-33
-1.6717e-36
-2.78158e-37
6.35599e-40
3.22687e-41
3.47839e-44
-1.89659e-45
-4.17694e-48
3.80211e-50
-1.00286e-53
-8.27001e-55
-9.29258e-57
-6.5551e-59
3.50914e-62
1.40803e-63
3.40392e-66
2.02567e-68
1.81583e-70
7.72452e-73
8.88912e-76
1.91475e-79
3.22084e-84
2.06613e-91
2.31612e-99
0.0274292
0.00415979
-0.0130686
-0.032287
-0.0560589
-0.0829814
-0.107134
-0.121252
-0.125817
-0.116627
-0.101789
-0.0841168
-0.0648732
-0.0489629
-0.0352214
-0.0242698
-0.0166061
-0.0107251
-0.00695293
-0.00432666
-0.00260698
-0.00158468
-0.000927899
-0.000534129
-0.000310382
-0.000171584
-9.48215e-05
-5.21481e-05
-2.79366e-05
-1.51863e-05
-8.08936e-06
-4.19498e-06
-2.2183e-06
-1.12862e-06
-5.83447e-07
-2.93632e-07
-1.45116e-07
-7.31967e-08
-3.53718e-08
-1.71134e-08
-8.29165e-09
-3.94705e-09
-1.88206e-09
-9.02079e-10
-4.16358e-10
-1.97725e-10
-9.05736e-11
-4.1112e-11
-1.90671e-11
-8.57034e-12
-3.9169e-12
-1.74539e-12
-7.66472e-13
-3.43796e-13
-1.48256e-13
-6.41443e-14
-2.78696e-14
-1.1909e-14
-5.09927e-15
-2.19991e-15
-9.10987e-16
-3.89801e-16
-1.61152e-16
-6.77911e-17
-2.79033e-17
-1.12973e-17
-4.65561e-18
-1.87503e-18
-7.49847e-19
-3.04248e-19
-1.19515e-19
-4.69044e-20
-1.84215e-20
-7.09268e-21
-2.78459e-21
-1.06967e-21
-4.14242e-22
-1.6765e-22
0.000661036
-0.000390214
-0.00444684
-0.00357216
0.00742722
0.0263296
0.0441683
0.0541632
-0.000268233
-0.000283129
-0.000256126
-0.000255463
-0.000258466
-0.000266893
-0.000264888
-0.000264438
-0.000261521
-5.23233e-05
7.67846e-05
-7.35012e-35
1.90396e-32
-1.47639e-30
-1.2635e-28
2.08731e-26
0
0
0
0
0
0
0
0
0
0
0
0
3.20866e-41
-9.21659e-40
-1.28103e-36
-3.70821e-36
-9.2684e-35
-7.27248e-34
-1.4214e-32
5.5664e-32
-5.4877e-33
4.25032e-31
2.7943e-31
1.38444e-31
1.10183e-31
4.29499e-32
-7.05388e-33
2.5795e-32
-7.22935e-32
-1.65012e-31
1.50509e-31
-1.88746e-31
-2.74099e-31
4.94168e-32
-3.51951e-31
2.65584e-31
4.5139e-32
5.60993e-31
1.62473e-31
4.48813e-32
1.31455e-31
2.5731e-32
-3.60089e-32
-3.21282e-32
-1.07475e-31
-1.7052e-32
-2.1261e-32
-3.90925e-32
-1.33855e-32
3.49483e-33
6.32057e-33
6.49512e-33
3.88747e-33
1.37521e-33
9.2597e-34
5.50413e-34
8.44214e-35
-6.46831e-35
8.6505e-36
-9.88838e-35
-4.13772e-35
-2.25748e-35
-1.89374e-35
-4.98039e-36
-6.68737e-36
-3.34408e-36
-1.31771e-36
-1.01021e-36
-4.6494e-37
-2.04423e-37
-8.63259e-38
-3.29142e-38
-1.1695e-38
-4.67269e-39
-1.81596e-39
7.93087e-40
1.87488e-40
1.34845e-40
1.92763e-40
8.28753e-41
1.26796e-40
5.89834e-41
2.71552e-41
1.60437e-41
7.11598e-42
3.50322e-42
1.50769e-42
6.40454e-43
3.22806e-43
1.25171e-43
5.86044e-44
1.99621e-44
7.93728e-45
2.95865e-45
8.70191e-46
3.16208e-46
-6.83514e-47
2.10815e-46
-1.70107e-36
-1.57992e-38
2.24852e-40
2.31978e-42
-1.45713e-44
-1.40073e-46
4.36122e-49
9.79757e-52
-6.43252e-54
-8.6609e-56
-8.80299e-58
-2.75785e-60
1.70172e-62
7.24401e-65
2.09256e-67
2.03703e-69
1.33028e-71
3.0956e-74
1.58476e-77
1.16376e-81
3.42999e-87
6.7827e-96
0.0376562
0.0149139
-0.00506045
-0.0215098
-0.0423374
-0.0692239
-0.0957708
-0.115631
-0.124986
-0.121972
-0.111078
-0.0936003
-0.0747832
-0.0564015
-0.041961
-0.0296534
-0.020123
-0.013297
-0.00865032
-0.00554989
-0.00341751
-0.00203672
-0.001229
-0.000714277
-0.000408391
-0.00022945
-0.000129486
-7.09688e-05
-3.86961e-05
-2.06204e-05
-1.11724e-05
-5.91536e-06
-3.0565e-06
-1.57214e-06
-8.11435e-07
-4.17963e-07
-2.09568e-07
-1.03226e-07
-5.1389e-08
-2.49392e-08
-1.201e-08
-5.80326e-09
-2.71214e-09
-1.30563e-09
-6.16428e-10
-2.87557e-10
-1.34258e-10
-6.19221e-11
-2.80498e-11
-1.27e-11
-5.79195e-12
-2.63901e-12
-1.17314e-12
-5.13727e-13
-2.27889e-13
-9.87838e-14
-4.2582e-14
-1.84648e-14
-7.77288e-15
-3.35883e-15
-1.42386e-15
-5.97447e-16
-2.49453e-16
-1.04467e-16
-4.38329e-17
-1.80242e-17
-7.26416e-18
-2.98658e-18
-1.1996e-18
-4.77982e-19
-1.89387e-19
-7.58024e-20
-2.96145e-20
-1.15982e-20
-4.46083e-21
-1.7457e-21
-6.68758e-22
-2.59861e-22
-4.39623e-06
0.000566631
-0.00238848
-0.00526245
0.000396762
0.0160273
0.0361836
0.0504354
0.0582042
-0.000249734
-0.000258068
-0.000253719
-0.000248913
-0.000249183
-0.00025047
-0.000250331
-0.000360468
2.99767e-41
-6.94711e-38
-1.65507e-35
1.02414e-34
1.26844e-31
-1.90809e-29
4.53444e-28
1.74379e-25
0
0
0
0
0
0
0
0
0
0
0
0
-2.85445e-40
-1.68164e-37
-6.468e-36
-1.95009e-36
-6.44766e-34
-6.25136e-33
8.84336e-32
3.72607e-32
6.64906e-31
4.32705e-31
2.01729e-31
1.70726e-31
7.40345e-32
6.87799e-33
6.21018e-32
2.88523e-32
-2.3333e-31
2.28981e-31
-3.3651e-31
-3.74357e-31
-4.94951e-31
-1.39647e-31
7.62772e-31
1.3722e-32
6.58012e-31
3.22941e-31
6.17558e-32
2.14309e-31
7.30071e-32
-3.98249e-32
9.45951e-32
-8.37494e-32
-3.80731e-32
-1.41457e-32
-6.86091e-32
-3.31157e-32
-1.52853e-32
5.77683e-33
1.56337e-32
2.717e-33
3.46672e-33
3.58571e-34
7.05048e-34
4.40638e-36
-4.97474e-35
9.07151e-36
-1.31058e-34
-5.89407e-35
-2.23445e-35
-2.0312e-35
-7.18109e-36
-9.50533e-36
-5.07157e-36
-2.07429e-36
-1.46356e-36
-6.68304e-37
-3.45472e-37
-1.28441e-37
-5.5363e-38
-1.78608e-38
-7.32541e-39
-3.34589e-39
4.06434e-40
2.46927e-40
4.9383e-41
9.23434e-41
1.19512e-40
1.78885e-40
7.97867e-41
3.59007e-41
2.37818e-41
1.059e-41
5.53037e-42
2.30029e-42
9.72707e-43
5.0495e-43
2.04883e-43
8.20821e-44
3.6851e-44
1.21782e-44
4.83184e-45
1.77677e-45
5.3806e-46
-9.26832e-47
-3.13348e-47
3.23947e-28
9.5545e-33
-7.37348e-31
-2.47191e-29
-5.57681e-30
8.28512e-05
0.0426386
-0.000490304
-0.00030201
9.02734e-43
-1.73404e-36
0
0
0
0
0
0
0
0
0
0
0
0
0
0
0
0
0
0
0
0
0
0
0
0
0
0
0
0
0
0
0
0
0
0
0
0
0
0
0
0
0
0
0
0
0
0
0
0
0
0
0
0
0
0
0
0
0
0
0
0
0
0
0
0
0
0
0
0
0
0
0
0
0
0
0
0
0
0
0
0
0
0
0
0
0
0
0
0
0
0
0
0
0
0
0
0
0
0
0
0
0
0
0
0
0
0
0
0
0
0
0
0
0
0
0
0
0
0
0
0
0
0
0
0
0
0
0
0
0
0
0
0
0
0
0
0
0
0
0
0
0
0
0
0
0
0
0
0
0
0
0
0
0
0
0
0
0
0
0
0
0
0
0
0
0
0
0
0
0
0
0
0
0
0
0
0
0
0
0
0
0
0
0
0
0
0
0
0
0
0
0
0
0
0
0
0
0
8.09374e-05
0
0
0
0
0
0
0
0
0
0
0
0
0
0
0
0
0
0
0
0
0
0
0
0
0
0
0
0
0
0
0
0
0
0
0
0
0
0
0
0
0
0
0
0
0
0
0
0
0
0
0
0
0
0
0
0
0
0
0
0
0
0
0
0
0
0
0
0
0
0
0
0
0
0
0
0
0
0
0
0
0
0
0
0
0
0
0
0
0
0
0
0
0
0
0
0
0
0
0
0
0
0
0
0
0
0
0
0
0
0
0
0
0
0
0
0
0
0
0
0
0
0
0
0
0
0
1.46294e-141
1.8299e-141
9.23151e-142
1.16818e-141
1.34394e-139
1.67662e-139
1.09196e-139
1.35992e-139
8.20599e-140
8.78161e-140
3.14641e-137
3.9253e-137
5.74832e-137
7.04537e-137
1.87679e-136
-4.3986e-136
5.0213e-135
5.84987e-135
8.34408e-135
1.04116e-134
9.70607e-135
1.18442e-134
6.318e-135
7.83763e-135
1.22781e-134
1.41524e-134
1.00057e-134
1.1822e-134
5.92186e-135
7.40175e-135
2.07164e-134
2.26036e-134
9.68937e-133
1.14086e-132
1.37045e-132
5.46884e-133
3.21334e-130
3.75841e-130
5.64187e-130
6.59655e-130
3.7228e-130
4.14857e-130
1.4334e-129
7.91328e-130
4.8251e-129
5.53449e-129
3.69071e-129
3.4022e-129
2.03212e-127
2.35677e-127
1.44584e-127
1.58921e-127
9.44544e-128
1.02376e-127
2.09711e-127
-3.83837e-127
4.7492e-126
4.7951e-126
1.07281e-125
1.08084e-125
2.16235e-125
2.30031e-125
2.00169e-124
1.92756e-124
1.29829e-124
1.26227e-124
8.85821e-125
8.15415e-125
5.634e-124
6.27837e-124
3.88262e-124
4.26166e-124
2.62814e-124
2.89134e-124
8.99278e-124
9.65982e-124
1.04084e-123
1.11888e-123
1.23003e-123
-9.95356e-124
1.09252e-123
-4.205e-124
7.35589e-123
7.92546e-123
2.63175e-122
-6.36132e-122
1.33638e-120
1.4735e-120
8.9236e-121
8.75669e-121
5.99901e-121
5.57032e-121
4.21955e-121
3.57618e-121
4.02201e-120
4.37639e-120
3.1028e-120
3.36945e-120
2.07026e-120
2.2083e-120
8.77574e-120
9.05325e-120
1.31505e-119
1.42276e-119
8.93369e-120
8.598e-120
2.36908e-119
9.37406e-120
1.14486e-118
1.20715e-118
7.98674e-119
7.07898e-119
2.24416e-118
2.61938e-118
1.45565e-118
1.59539e-118
9.46697e-119
1.00981e-118
6.49542e-119
5.3009e-119
8.14847e-119
8.01629e-119
1.71684e-118
1.86156e-118
1.18553e-118
1.15456e-118
1.0702e-117
1.10677e-117
1.23589e-117
1.3384e-117
8.21234e-118
8.86027e-118
7.9224e-118
5.93231e-118
1.46194e-117
1.57701e-117
1.08861e-117
6.67919e-118
2.74917e-117
3.07011e-117
1.78383e-117
1.93442e-117
1.13766e-117
1.23755e-117
9.18613e-118
9.47257e-118
6.40157e-118
6.31922e-118
5.59014e-118
2.32478e-118
1.29019e-116
1.37394e-116
9.08821e-117
6.82545e-117
1.47819e-116
1.50937e-116
1.02014e-116
9.29379e-117
6.28889e-116
6.59604e-116
4.55179e-116
4.79695e-116
3.011e-116
3.21423e-116
4.36181e-116
4.65128e-116
4.37588e-116
4.76678e-116
6.05074e-116
-6.94753e-116
2.96148e-115
2.72842e-115
4.58477e-115
5.14179e-115
3.00218e-115
3.3212e-115
3.12969e-115
3.56078e-115
2.10207e-115
2.15878e-115
2.57675e-115
2.90336e-115
1.68165e-115
1.84206e-115
5.51798e-115
6.0003e-115
4.06406e-115
4.4063e-115
2.71338e-115
2.98267e-115
4.75043e-115
5.07019e-115
5.06089e-115
5.58215e-115
3.32812e-115
3.67379e-115
3.12439e-115
2.44498e-115
4.20691e-115
4.47348e-115
3.70501e-115
3.207e-115
2.38242e-115
2.19678e-115
1.6985e-115
1.17384e-115
3.55906e-115
3.80377e-115
2.31571e-115
2.51188e-115
2.16744e-115
2.36445e-115
2.35761e-115
2.71702e-115
1.46822e-115
1.68734e-115
2.33606e-115
2.64234e-115
2.04022e-115
2.29942e-115
1.34062e-115
1.53805e-115
9.25614e-116
9.1869e-116
9.87461e-116
1.11231e-115
6.59536e-116
7.11616e-116
1.00292e-115
1.07151e-115
8.40979e-116
9.06972e-116
5.372e-116
5.96965e-116
3.77337e-116
4.31798e-116
2.63002e-116
2.9572e-116
2.46662e-116
6.39624e-117
1.71849e-115
1.88602e-115
1.19673e-115
1.24671e-115
7.64759e-116
7.92383e-116
4.97509e-116
5.21969e-116
1.03139e-115
1.15539e-115
8.1568e-116
9.24004e-116
5.50102e-116
6.15925e-116
7.79727e-115
9.21974e-115
6.20244e-115
2.23471e-115
-1.02888e-114
-3.21174e-114
1.35617e-110
-5.1235e-111
1.78532e-106
9.77739e-107
9.23949e-103
1.13592e-102
6.22065e-103
3.03024e-102
7.80796e-103
1.13741e-32
4.58899e-27
-4.91104e-25
-7.56735e-24
-1.55135e-23
-1.02632e-24
-6.69676e-30
-2.9105e-29
-1.41618e-29
-1.94595e-36
3.69111e-05
-3.33027e-37
7.3509e-40
3.86115e-41
4.14841e-44
-2.2491e-45
-4.95815e-48
4.4437e-50
-1.18159e-53
-9.88059e-55
-1.11296e-56
-7.84187e-59
4.2468e-62
1.66665e-63
4.0655e-66
2.44477e-68
2.18e-70
9.21885e-73
1.04364e-75
2.22902e-79
3.63704e-84
2.29049e-91
2.69007e-99
1.00285e-101
-0.0149053
6.97034e-05
-0.0187562
-0.019353
-0.0223661
-0.0263047
-0.0281512
-0.0285186
-0.024733
-0.0198567
-0.0134449
-0.00909683
-0.00557476
-0.00236289
-7.70146e-05
-8.89274e-05
0.000196372
0.000321937
0.000288274
0.000257828
0.000104201
7.12215e-05
5.90203e-05
2.53769e-05
1.32407e-05
4.54501e-06
4.46766e-06
1.58488e-06
2.90285e-07
5.36062e-07
5.42581e-07
1.62647e-07
7.9092e-08
5.80748e-09
5.29213e-09
6.9492e-09
-1.80367e-09
-2.04939e-09
-2.23135e-09
-1.05144e-09
-6.17152e-10
-4.3019e-10
-2.33033e-10
-7.72621e-11
-5.1208e-11
-2.25932e-11
-1.20949e-11
-6.74458e-12
-3.01602e-12
-1.76863e-12
-8.10277e-13
-3.329e-13
-1.88139e-13
-9.09358e-14
-4.6862e-14
-2.10462e-14
-9.34982e-15
-4.65032e-15
-2.11905e-15
-8.26279e-16
-3.99178e-16
-1.65241e-16
-7.14604e-17
-3.19405e-17
-1.21298e-17
-5.53911e-18
-2.53681e-18
-9.99132e-19
-4.33817e-19
-1.82136e-19
-7.99292e-20
-3.19392e-20
-1.29755e-20
-5.52198e-21
-2.10917e-21
-7.80451e-22
-3.18595e-22
-1.28588e-22
-6.01421e-23
0.000303287
-8.71308e-23
-8.70119e-35
-3.44249e-05
-0.00116612
-0.000780265
0.00282251
0.00656659
0.0077303
0.00496663
-0.000636972
-7.98383e-05
9.49306e-05
-9.44659e-06
-0.00709679
-1.74595e-05
9.46071e-05
9.08729e-05
1.07549e-42
-5.28209e-06
-7.08649e-06
-1.61358e-05
-1.57277e-05
-9.67787e-06
-1.3435e-05
-8.56649e-05
-8.98118e-05
5.41261e-05
-2.31307e-05
1.19349e-34
-2.93162e-37
-0.0123303
-0.0137053
-1.1269e-33
2.36578e-32
0.000588041
0.000378493
0.000615242
-0.000274594
0.000344499
-0.00104461
-7.1199e-05
-0.00142961
-0.000419577
-0.000971414
-0.000491389
0.000270095
2.8577e-05
0.00213525
0.00060084
0.00391856
0.00140226
0.00547373
0.00140469
0.00669455
0.00117285
0.00715821
0.000767575
0.0066015
-0.000152531
0.0052779
-0.00158102
0.00360186
-0.00337338
0.000584065
-0.00479884
-0.00170559
-0.00691337
-0.00483675
-0.00829575
-0.00725336
-0.0100545
-0.00947616
-0.0101007
-0.0123208
-0.0109711
-0.014811
-0.0115766
-0.0155771
-0.0111953
-0.0160375
-0.0107375
-0.016441
-0.00949622
-0.0165879
-0.00839531
-0.0178268
-0.00710865
-0.0187921
-0.0066639
-0.0199013
-0.00637052
-0.0205592
-0.00496933
-0.0210459
-0.00280143
-0.0218047
-0.00246176
-0.0222655
-0.000608045
-0.0216872
-0.000604325
-0.0192131
0.000551775
-0.0177778
0.00417848
-0.0145025
0.00362806
-0.0110197
0.00625213
-0.00896612
0.00856072
-0.00573697
0.00825491
-0.0048167
0.01058
-0.0048727
0.00932483
-0.00334119
0.00746789
-0.00196156
0.00765118
-0.000680488
0.00736124
-0.000543791
0.00730804
0.00010657
0.00604414
0.000821003
0.00552305
0.000510402
0.00532054
0.000918657
0.00409272
0.00106081
0.00373821
0.000719133
0.00337342
0.000644383
0.00252964
0.000706645
0.00209334
0.000503479
0.00184899
0.000478
0.00138334
0.000441837
0.00117236
0.000407662
0.000966803
0.000316329
0.000810184
0.000269363
0.000620674
0.000244517
0.000508782
0.00015952
0.000421307
0.000142588
0.000293636
0.000119516
0.000238093
7.92974e-05
0.000192761
6.16998e-05
0.000134002
5.25924e-05
0.000103013
3.37386e-05
8.2952e-05
2.90876e-05
5.66815e-05
2.36675e-05
4.47586e-05
1.68088e-05
3.51586e-05
1.38282e-05
2.48159e-05
8.89382e-06
2.00809e-05
5.21182e-06
1.33689e-05
4.16731e-06
8.67219e-06
3.33025e-06
6.703e-06
2.68997e-06
5.09338e-06
1.75547e-06
3.97664e-06
1.30903e-06
2.65957e-06
1.05602e-06
1.96307e-06
6.28141e-07
1.51087e-06
5.14821e-07
9.69053e-07
4.00462e-07
7.35075e-07
2.69117e-07
5.55413e-07
2.12722e-07
3.74259e-07
1.2625e-07
2.92045e-07
6.66718e-08
1.8215e-07
5.19394e-08
1.0989e-07
4.02502e-08
8.25607e-08
3.15413e-08
6.07959e-08
2.07342e-08
4.55198e-08
1.57074e-08
3.05225e-08
1.24152e-08
2.27172e-08
6.72936e-09
1.69232e-08
5.35482e-09
1.01077e-08
4.01002e-09
7.4176e-09
2.15992e-09
5.48865e-09
1.50943e-09
3.2494e-09
1.19193e-09
2.2755e-09
6.62466e-10
1.68429e-09
5.04776e-10
1.02064e-09
3.83402e-10
7.49399e-10
2.91612e-10
5.40901e-10
1.81757e-10
3.943e-10
1.34741e-10
2.539e-10
1.03087e-10
1.84524e-10
5.17377e-11
1.34177e-10
4.02287e-11
7.50163e-11
2.9275e-11
5.35505e-11
1.44897e-11
3.87394e-11
1.0017e-11
2.16799e-11
7.7895e-12
1.49026e-11
3.47378e-12
1.08412e-11
2.7939e-12
5.79213e-12
2.13579e-12
4.21577e-12
1.20924e-12
3.04261e-12
9.44943e-13
1.81579e-12
3.7327e-13
1.36765e-12
4.48567e-14
6.71416e-13
5.2351e-14
2.80604e-13
5.77827e-14
2.14708e-13
5.47736e-14
1.58635e-13
8.3097e-15
1.17855e-13
7.11357e-15
5.42259e-14
9.79526e-15
3.75294e-14
-3.8065e-15
2.87249e-14
-6.0765e-16
1.00987e-14
9.195e-16
8.29019e-15
-4.21027e-15
6.57083e-15
-2.42579e-15
1.61815e-16
-1.13323e-15
5.67924e-16
-1.42399e-15
6.42759e-16
-8.40799e-16
-1.75823e-16
-4.41557e-16
1.3297e-17
-2.22458e-16
8.00248e-17
-2.02553e-16
9.5056e-17
-1.05005e-16
2.10175e-17
-4.98991e-17
3.11899e-17
-8.27975e-17
3.48129e-17
-4.67282e-17
-1.99612e-17
-2.75775e-17
-1.0087e-17
-3.08151e-17
-2.97379e-18
-2.0027e-17
-1.19157e-17
-1.14116e-17
-7.94434e-18
-1.02182e-17
-4.17947e-18
-6.29314e-18
-5.20042e-18
-3.63114e-18
-2.8701e-18
-2.10323e-18
-1.57697e-18
-1.52728e-18
-8.84623e-19
-8.7874e-19
-6.75142e-19
-5.17735e-19
-3.95045e-19
-2.95969e-19
-2.19865e-19
-2.44075e-19
-9.58714e-20
-1.60597e-19
-1.20644e-19
-1.55559e-19
-8.29598e-20
-1.01498e-19
-9.24386e-20
-6.04398e-20
-6.04734e-20
-4.89507e-20
-3.54989e-20
-3.02175e-20
-3.18406e-20
-1.7818e-20
-1.87149e-20