/*--------------------------------*- C++ -*----------------------------------*\
  =========                 |
  \\      /  F ield         | OpenFOAM: The Open Source CFD Toolbox
   \\    /   O peration     | Website:  https://openfoam.org
    \\  /    A nd           | Version:  7
     \\/     M anipulation  |
\*---------------------------------------------------------------------------*/
FoamFile
{
    version     2.0;
    format      ascii;
    class       volScalarField;
    location    "0.5";
    object      T;
}
// * * * * * * * * * * * * * * * * * * * * * * * * * * * * * * * * * * * * * //

dimensions      [0 0 0 1 0 0 0];

internalField   nonuniform List<scalar> 
10000
(
0.5
0.0669146
-0.0353169
-0.0277115
-0.00789976
0.00112931
0.00220711
0.000963794
3.88563e-05
-0.000206219
-0.000130475
-2.60559e-05
1.76156e-05
1.74837e-05
6.08561e-06
-9.06072e-07
-2.20759e-06
-1.13469e-06
-1.06162e-07
2.47862e-07
1.87027e-07
4.93971e-08
-2.13865e-08
-2.77787e-08
-1.17285e-08
4.52592e-10
3.70965e-09
2.29065e-09
4.0292e-10
-4.38543e-10
-4.56078e-10
-2.27117e-10
-6.22471e-11
-6.54849e-13
1.45825e-11
2.45412e-11
3.53936e-11
3.9372e-11
3.27316e-11
1.92399e-11
5.49741e-12
-3.84747e-12
-7.66682e-12
-7.35221e-12
-5.07969e-12
-2.58604e-12
-7.57869e-13
2.24704e-13
5.5609e-13
5.24278e-13
3.59717e-13
1.94023e-13
7.75955e-14
1.38695e-14
-1.21532e-14
-1.73554e-14
-1.39562e-14
-8.72563e-15
-4.47109e-15
-1.80869e-15
-4.48808e-16
9.80286e-17
2.32116e-16
2.01852e-16
1.32207e-16
7.22641e-17
3.33805e-17
1.23535e-17
2.77231e-18
-6.95838e-19
-1.42156e-18
-1.17969e-18
-7.52645e-19
-4.08407e-19
-1.92617e-19
-7.7312e-20
-2.38404e-20
-2.87255e-21
3.29274e-21
3.80076e-21
2.73613e-21
1.61608e-21
8.34892e-22
3.82773e-22
1.53266e-22
4.99947e-23
9.65694e-24
-2.9158e-24
-4.93317e-24
-3.8309e-24
-2.35293e-24
-1.26043e-24
-6.06696e-25
-2.63253e-25
-1.009e-25
-3.18563e-26
-6.11505e-27
1.60206e-27
2.76531e-27
2.28603e-27
0.933085
0.5
0.14482
-0.0139075
-0.0411718
-0.0230289
-0.00507433
0.00215701
0.00250723
0.00101071
-9.38753e-08
-0.000255324
-0.000158213
-3.18213e-05
2.20241e-05
2.24005e-05
8.17947e-06
-9.48175e-07
-2.86443e-06
-1.56602e-06
-2.00123e-07
3.13501e-07
2.58845e-07
7.76717e-08
-2.4022e-08
-3.79958e-08
-1.77095e-08
-3.68494e-10
5.12489e-09
3.68385e-09
1.0921e-09
-2.80018e-10
-5.32379e-10
-3.84893e-10
-2.55358e-10
-2.03768e-10
-1.62788e-10
-9.4492e-11
-1.41384e-11
4.67252e-11
7.16478e-11
6.515e-11
4.2651e-11
1.88714e-11
2.01439e-12
-6.25002e-12
-8.03578e-12
-6.44113e-12
-3.91155e-12
-1.77175e-12
-4.34709e-13
1.90375e-13
3.61272e-13
3.15512e-13
2.06628e-13
1.08641e-13
4.38932e-14
9.74729e-15
-4.08821e-15
-7.22268e-15
-6.03212e-15
-3.85985e-15
-2.04686e-15
-8.93152e-16
-2.8639e-16
-2.48026e-17
5.71434e-17
6.27682e-17
4.51671e-17
2.65104e-17
1.33095e-17
5.6682e-18
1.88775e-18
3.08365e-19
-1.99391e-19
-2.68854e-19
-2.03051e-19
-1.23041e-19
-6.44426e-20
-2.96199e-20
-1.16902e-20
-3.60137e-21
-4.90103e-22
4.19641e-22
5.0627e-22
3.66684e-22
2.17149e-22
1.12792e-22
5.23696e-23
2.15608e-23
7.52242e-24
1.87585e-24
-2.10107e-26
-4.47063e-25
-3.99957e-25
-2.6047e-25
-1.45093e-25
-7.24164e-26
-3.29249e-26
-1.12686e-26
1.03532
0.85518
0.5
0.182448
0.00830364
-0.0419281
-0.032441
-0.0120093
3.84408e-05
0.00307766
0.00201936
0.000522644
-0.000189734
-0.000261936
-0.000118925
-6.07707e-06
2.86043e-05
2.02421e-05
5.19524e-06
-2.29059e-06
-2.95627e-06
-1.27809e-06
8.4605e-09
3.71754e-07
2.40776e-07
5.00485e-08
-3.74313e-08
-3.95531e-08
-1.52939e-08
1.59385e-09
5.9244e-09
4.02689e-09
1.53124e-09
3.02679e-10
-1.26629e-11
-1.02698e-10
-2.41453e-10
-3.7596e-10
-4.03758e-10
-3.11417e-10
-1.61086e-10
-2.53376e-11
5.6001e-11
8.10079e-11
6.92439e-11
4.34668e-11
1.93195e-11
3.3877e-12
-4.14438e-12
-5.92093e-12
-4.86666e-12
-3.03952e-12
-1.47597e-12
-4.82323e-13
6.99418e-15
1.72051e-13
1.76228e-13
1.25177e-13
7.13987e-14
3.30239e-14
1.11739e-14
1.11726e-15
-2.25696e-15
-2.58047e-15
-1.89483e-15
-1.12155e-15
-5.59407e-16
-2.30098e-16
-6.78563e-17
-2.288e-18
1.63191e-17
1.6327e-17
1.12956e-17
6.47291e-18
3.20335e-18
1.3594e-18
4.61604e-19
8.84488e-20
-3.36799e-20
-5.38193e-20
-4.19614e-20
-2.58434e-20
-1.37499e-20
-6.46487e-21
-2.65841e-21
-9.01601e-22
-1.96053e-22
3.36619e-23
7.7113e-23
6.27059e-23
3.93193e-23
2.13215e-23
1.03429e-23
4.50802e-24
1.7293e-24
5.42701e-25
1.00143e-25
-3.15354e-26
-5.02037e-26
-4.05886e-26
1.02771
1.01391
0.817552
0.5
0.206389
0.0268058
-0.0388677
-0.0384381
-0.0184166
-0.00302402
0.00284105
0.00282245
0.00118552
4.2633e-05
-0.000296282
-0.000211922
-6.02235e-05
1.88442e-05
2.95095e-05
1.43557e-05
1.17965e-06
-3.31272e-06
-2.54102e-06
-7.34654e-07
2.46969e-07
3.77632e-07
1.78877e-07
7.79526e-09
-4.85286e-08
-3.607e-08
-1.0976e-08
2.69085e-09
5.16988e-09
3.43924e-09
1.8824e-09
1.31398e-09
1.08127e-09
6.80766e-10
1.26377e-10
-3.38681e-10
-5.49674e-10
-5.12831e-10
-3.39532e-10
-1.48713e-10
-1.11424e-11
5.62994e-11
6.97795e-11
5.49857e-11
3.26503e-11
1.4071e-11
2.69234e-12
-2.40851e-12
-3.57838e-12
-2.94145e-12
-1.84649e-12
-9.21959e-13
-3.36251e-13
-4.24409e-14
6.5603e-14
8.04454e-14
6.09867e-14
3.66559e-14
1.82194e-14
7.19568e-15
1.76138e-15
-3.57014e-16
-8.58122e-16
-7.39077e-16
-4.79913e-16
-2.6104e-16
-1.20842e-16
-4.55902e-17
-1.1303e-17
1.31738e-18
4.23765e-18
3.68602e-18
2.3973e-18
1.3197e-18
6.33461e-19
2.62077e-19
8.69219e-20
1.60937e-20
-6.44202e-21
-9.93015e-21
-7.64213e-21
-4.6715e-21
-2.47805e-21
-1.16835e-21
-4.86494e-22
-1.70971e-22
-4.25727e-23
9.05718e-25
1.06714e-23
9.49432e-24
6.17459e-24
3.43226e-24
1.70529e-24
7.65832e-25
3.09604e-25
7.96022e-26
1.0079
1.04117
0.991696
0.793611
0.5
0.223365
0.042154
-0.0343031
-0.0421139
-0.0239644
-0.00647534
0.00197761
0.00332499
0.00186777
0.000400612
-0.000245072
-0.000285991
-0.000129611
-8.12735e-06
3.15023e-05
2.3923e-05
7.2559e-06
-1.97866e-06
-3.44897e-06
-1.76093e-06
-1.83067e-07
3.93913e-07
3.21492e-07
1.01749e-07
-2.69684e-08
-5.05566e-08
-2.93882e-08
-8.15918e-09
7.71928e-10
1.91533e-09
1.42802e-09
1.68359e-09
2.29198e-09
2.39476e-09
1.78337e-09
8.24225e-10
-1.58505e-11
-4.85203e-10
-5.86391e-10
-4.61206e-10
-2.64716e-10
-9.74012e-11
4.03787e-12
4.52852e-11
4.85946e-11
3.55311e-11
2.00398e-11
8.3513e-12
1.63807e-12
-1.22715e-12
-1.8564e-12
-1.51799e-12
-9.52926e-13
-4.83661e-13
-1.88219e-13
-3.84722e-14
1.963e-14
3.15015e-14
2.55741e-14
1.60753e-14
8.41487e-15
3.63946e-15
1.16531e-15
1.10474e-16
-2.17955e-16
-2.4184e-16
-1.74046e-16
-1.02108e-16
-5.13305e-17
-2.19888e-17
-7.46517e-18
-1.36556e-18
6.3344e-19
9.4733e-19
7.30923e-19
4.47568e-19
2.36368e-19
1.09708e-19
4.39858e-20
1.40477e-20
2.34218e-21
-1.221e-21
-1.68691e-21
-1.26168e-21
-7.59494e-22
-3.99277e-22
-1.8758e-22
-7.83878e-23
-2.80443e-23
-7.47709e-24
-3.73526e-25
1.36151e-24
1.31531e-24
8.78037e-25
4.79954e-25
0.998871
1.02303
1.04193
0.973194
0.776635
0.5
0.236308
0.0551561
-0.0291433
-0.0442026
-0.0286476
-0.0100134
0.000663016
0.00351519
0.00249279
0.000838179
-0.000110139
-0.000325109
-0.00020245
-4.98924e-05
2.37009e-05
3.12709e-05
1.49637e-05
1.25973e-06
-3.52267e-06
-2.80775e-06
-8.95693e-07
2.17665e-07
4.20549e-07
2.29951e-07
3.71715e-08
-4.14301e-08
-4.14722e-08
-2.08824e-08
-7.85416e-09
-4.3013e-09
-3.76145e-09
-2.20136e-09
4.24959e-10
2.60277e-09
3.36235e-09
2.80468e-09
1.62486e-09
5.00576e-10
-2.15891e-10
-4.93175e-10
-4.72335e-10
-3.22554e-10
-1.63466e-10
-4.9991e-11
9.77635e-12
2.98906e-11
2.8574e-11
1.96199e-11
1.05979e-11
4.29587e-12
8.60567e-13
-5.48694e-13
-8.48956e-13
-6.92105e-13
-4.34744e-13
-2.23614e-13
-9.12462e-14
-2.35346e-14
3.84684e-15
1.07656e-14
9.51259e-15
6.25696e-15
3.42292e-15
1.5802e-15
5.84066e-16
1.30936e-16
-3.26076e-17
-6.65919e-17
-5.50775e-17
-3.49816e-17
-1.88673e-17
-8.8204e-18
-3.4881e-18
-1.03898e-18
-9.42642e-20
1.72474e-19
1.84787e-19
1.29705e-19
7.53024e-20
3.82609e-20
1.71874e-20
6.67089e-21
2.03931e-21
2.90537e-22
-2.14942e-22
-2.65027e-22
-1.92031e-22
-1.13632e-22
-5.9114e-23
-2.76211e-23
-1.15488e-23
-4.1774e-24
-1.1827e-24
7.46907e-26
0.997793
1.00507
1.03244
1.03887
0.957846
0.763692
0.5
0.246668
0.0663827
-0.0238073
-0.0451887
-0.0325522
-0.0134733
-0.000959178
0.00341734
0.00301639
0.00131432
9.73301e-05
-0.000320961
-0.000268331
-0.000102053
5.4007e-06
3.42596e-05
2.29969e-05
6.21639e-06
-2.43857e-06
-3.57993e-06
-1.795e-06
-1.89387e-07
4.10102e-07
3.54169e-07
1.38019e-07
2.69693e-09
-3.1767e-08
-2.19023e-08
-1.05291e-08
-8.64611e-09
-1.07209e-08
-1.05469e-08
-6.89241e-09
-1.93014e-09
1.89859e-09
3.55047e-09
3.35294e-09
2.22992e-09
1.01302e-09
1.47418e-10
-2.79667e-10
-3.7833e-10
-3.06421e-10
-1.86653e-10
-8.47493e-11
-2.10833e-11
8.64175e-12
1.67761e-11
1.46524e-11
9.55854e-12
4.98736e-12
1.98203e-12
4.10102e-13
-2.16226e-13
-3.48656e-13
-2.84851e-13
-1.79485e-13
-9.35229e-14
-3.96672e-14
-1.18392e-14
-1.81515e-16
3.20863e-15
3.18738e-15
2.20611e-15
1.25827e-15
6.12252e-16
2.48738e-16
7.44869e-17
5.16257e-18
-1.46845e-17
-1.53027e-17
-1.07017e-17
-6.18552e-18
-3.10462e-18
-1.35543e-18
-4.9232e-19
-1.23086e-19
6.78624e-21
3.64782e-20
3.21848e-20
2.09635e-20
1.16234e-20
5.70329e-21
2.48486e-21
9.34241e-22
2.72574e-22
3.12046e-23
-3.47427e-23
-3.88103e-23
-2.72812e-23
-1.58783e-23
-8.19041e-24
-3.37453e-24
0.999036
0.997843
1.01201
1.03844
1.0343
0.944844
0.753332
0.5
0.255249
0.0762288
-0.0184971
-0.0453946
-0.0357829
-0.0167686
-0.00277966
0.00306919
0.00341666
0.00179625
0.000362307
-0.000271063
-0.000319197
-0.000159504
-2.26996e-05
3.14497e-05
3.00083e-05
1.24173e-05
-5.52884e-08
-3.80043e-06
-2.72936e-06
-8.2143e-07
2.28775e-07
4.13218e-07
2.39781e-07
6.92735e-08
1.28327e-09
-2.24965e-09
5.30598e-09
2.14433e-09
-8.13147e-09
-1.58401e-08
-1.64339e-08
-1.14397e-08
-4.80911e-09
3.44613e-10
2.89543e-09
3.25693e-09
2.43934e-09
1.34034e-09
4.66235e-10
-3.62838e-11
-2.27918e-10
-2.35128e-10
-1.67998e-10
-9.31472e-11
-3.83117e-11
-7.46591e-12
5.47019e-12
8.24407e-12
6.71022e-12
4.20114e-12
2.13402e-12
8.38095e-13
1.81495e-13
-7.51567e-14
-1.30306e-13
-1.074e-13
-6.80975e-14
-3.59678e-14
-1.57752e-14
-5.22089e-15
-6.57215e-16
8.13518e-16
9.68688e-16
7.13096e-16
4.24425e-16
2.16253e-16
9.42421e-17
3.30173e-17
6.83863e-18
-2.04084e-18
-3.67561e-18
-2.94202e-18
-1.83636e-18
-9.84115e-19
-4.63464e-19
-1.89317e-19
-6.25469e-20
-1.1981e-20
4.01884e-21
6.58345e-21
5.10458e-21
3.13064e-21
1.66829e-21
7.93432e-22
3.36085e-22
1.22563e-22
3.40733e-23
2.84042e-24
-5.09212e-24
-5.90816e-24
0.999961
0.997493
0.999962
1.01842
1.04211
1.02914
0.933617
0.744751
0.5
0.262537
0.0849758
-0.0133115
-0.0450396
-0.0384394
-0.0198576
-0.00471768
0.00251112
0.00368607
0.00225945
0.000669095
-0.000176904
-0.000349474
-0.000217242
-5.8963e-05
2.21181e-05
3.47986e-05
1.92232e-05
3.604e-06
-3.23202e-06
-3.496e-06
-1.60555e-06
-1.46829e-07
3.48016e-07
2.85228e-07
1.15061e-07
2.91468e-08
2.3094e-08
3.69973e-08
3.51774e-08
1.66022e-08
-4.72997e-09
-1.76488e-08
-1.97048e-08
-1.45698e-08
-7.33792e-09
-1.51069e-09
1.68843e-09
2.61874e-09
2.23462e-09
1.40445e-09
6.48074e-10
1.56697e-10
-7.85335e-11
-1.43211e-10
-1.24268e-10
-8.05406e-11
-4.12735e-11
-1.55141e-11
-2.22119e-12
2.83373e-12
3.62738e-12
2.79391e-12
1.69317e-12
8.43068e-13
3.29547e-13
7.54649e-14
-2.28368e-14
-4.474e-14
-3.74925e-14
-2.40044e-14
-1.2865e-14
-5.81482e-15
-2.08151e-15
-4.19489e-16
1.60488e-16
2.66873e-16
2.12773e-16
1.32656e-16
7.05702e-17
3.2546e-17
1.26359e-17
3.61541e-18
2.02129e-19
-7.18729e-19
-7.22986e-19
-4.96879e-19
-2.84876e-19
-1.43265e-19
-6.36486e-20
-2.43136e-20
-7.18264e-21
-8.22658e-22
9.44567e-22
1.05964e-21
7.4852e-22
4.36933e-22
2.24973e-22
1.04045e-22
4.32135e-23
1.15795e-23
1.00021
0.998989
0.996922
1.00302
1.02396
1.0442
1.02381
0.923771
0.737463
0.5
0.268847
0.0928295
-0.00829713
-0.0442768
-0.0406094
-0.0227243
-0.00671456
0.00178129
0.00382595
0.00268654
0.001003
-4.24422e-05
-0.000355815
-0.000270834
-0.000101232
6.15489e-06
3.64001e-05
2.59134e-05
8.36621e-06
-1.70144e-06
-3.85393e-06
-2.38132e-06
-6.55809e-07
1.54782e-07
2.397e-07
9.2978e-08
1.99841e-09
9.50817e-09
5.21624e-08
7.39476e-08
6.16711e-08
3.08066e-08
1.36191e-09
-1.56903e-08
-1.96907e-08
-1.55465e-08
-8.80376e-09
-3.06233e-09
3.72575e-10
1.71115e-09
1.74675e-09
1.23967e-09
6.74391e-10
2.60679e-10
3.08964e-11
-6.09827e-11
-7.52117e-11
-5.77353e-11
-3.4611e-11
-1.65928e-11
-5.74499e-12
-5.37835e-13
1.27136e-12
1.45355e-12
1.07223e-12
6.33508e-13
3.11031e-13
1.21742e-13
2.96554e-14
-5.87658e-15
-1.42032e-14
-1.22141e-14
-7.92577e-15
-4.31547e-15
-2.00536e-15
-7.64117e-16
-1.96246e-16
1.50359e-17
6.59496e-17
5.87773e-17
3.86627e-17
2.14688e-17
1.03976e-17
4.35253e-18
1.47446e-18
2.95645e-19
-8.86319e-20
-1.55088e-19
-1.22405e-19
-7.58301e-20
-4.06273e-20
-1.9329e-20
-8.12744e-21
-2.89439e-21
-7.42145e-22
-2.14206e-24
1.70651e-22
1.56074e-22
1.02562e-22
5.47128e-23
1.00013
1
0.997981
0.997159
1.00648
1.02865
1.04519
1.0185
0.915024
0.731153
0.5
0.274394
0.0999444
-0.00347339
-0.0432147
-0.0423674
-0.025367
-0.00872811
0.000913719
0.00384278
0.00306586
0.0013511
0.000127012
-0.000336695
-0.000316622
-0.00014715
-1.60874e-05
3.40793e-05
3.17118e-05
1.38826e-05
8.31581e-07
-3.5915e-06
-2.93249e-06
-1.14063e-06
-6.9741e-08
1.51155e-07
1.04611e-08
-1.05859e-07
-8.99587e-08
-1.83253e-09
7.41685e-08
9.90184e-08
7.96276e-08
4.2012e-08
8.4864e-09
-1.09973e-08
-1.68906e-08
-1.44139e-08
-8.94945e-09
-3.92792e-09
-6.80903e-10
8.21806e-10
1.16197e-09
9.45306e-10
5.83953e-10
2.79455e-10
8.83738e-11
-4.33635e-12
-3.46641e-11
-3.44922e-11
-2.41458e-11
-1.35831e-11
-6.15367e-12
-1.9781e-12
-9.29713e-14
5.09799e-13
5.37477e-13
3.83378e-13
2.22172e-13
1.08092e-13
4.25724e-14
1.10521e-14
-1.15228e-15
-4.1845e-15
-3.73518e-15
-2.46658e-15
-1.36635e-15
-6.51698e-16
-2.61451e-16
-7.82322e-17
-6.33717e-18
1.41757e-17
1.50143e-17
1.05466e-17
6.12641e-18
3.10328e-18
1.37926e-18
5.20654e-19
1.46375e-19
9.08779e-21
-2.70075e-20
-2.71498e-20
-1.85848e-20
-1.06531e-20
-5.39364e-21
-2.4411e-21
-9.72942e-22
-3.20891e-22
-6.93351e-23
2.81982e-23
1.00003
1.00026
0.999477
0.997178
0.998022
1.01001
1.03255
1.04539
1.01331
0.90717
0.725606
0.5
0.279329
0.106439
0.00115474
-0.041932
-0.0437761
-0.0277924
-0.0107283
-6.22638e-05
0.00374581
0.00339019
0.00170247
0.000325572
-0.000291976
-0.000351752
-0.000194354
-4.39039e-05
2.73367e-05
3.58063e-05
1.95914e-05
4.16885e-06
-2.66289e-06
-3.10906e-06
-1.42549e-06
-1.54675e-07
1.68365e-07
-2.34282e-08
-2.37731e-07
-2.70416e-07
-1.57625e-07
-1.3415e-08
8.15217e-08
1.07868e-07
8.64859e-08
4.80854e-08
1.45923e-08
-5.32502e-09
-1.25281e-08
-1.18236e-08
-7.97796e-09
-4.04188e-09
-1.29346e-09
1.41768e-10
6.3515e-10
6.2651e-10
4.37395e-10
2.413e-10
1.02265e-10
2.49767e-11
-8.06542e-12
-1.6426e-11
-1.42017e-11
-9.25148e-12
-4.93898e-12
-2.13312e-12
-6.4217e-13
-3.12857e-15
1.86412e-13
1.85291e-13
1.28807e-13
7.35889e-14
3.56268e-14
1.4172e-14
3.91651e-15
-8.71637e-17
-1.14492e-15
-1.07685e-15
-7.27047e-16
-4.10411e-16
-2.00698e-16
-8.41212e-17
-2.80099e-17
-4.9706e-18
2.41733e-18
3.52153e-18
2.69609e-18
1.64663e-18
8.71211e-19
4.07461e-19
1.66321e-19
5.55543e-20
1.13831e-20
-2.77085e-21
-5.25361e-21
-4.17152e-21
-2.59055e-21
-1.39596e-21
-6.75496e-22
-2.47426e-22
0.999982
1.00016
1.00019
0.998814
0.996675
0.999337
1.01347
1.03578
1.04504
1.0083
0.900056
0.720671
0.5
0.283765
0.112406
0.00559006
-0.0404869
-0.0448875
-0.0300111
-0.0126941
-0.0011218
0.00354554
0.00365561
0.00204818
0.000547297
-0.000222491
-0.00037406
-0.000240511
-7.62325e-05
1.60047e-05
3.74718e-05
2.47771e-05
7.83164e-06
-1.31666e-06
-2.99872e-06
-1.48444e-06
1.37905e-08
4.63018e-07
1.77774e-07
-2.3657e-07
-4.32581e-07
-3.78457e-07
-2.00117e-07
-2.74791e-08
7.41642e-08
1.01642e-07
8.2807e-08
4.83956e-08
1.82375e-08
-2.81293e-10
-7.92432e-09
-8.6487e-09
-6.35408e-09
-3.58099e-09
-1.47605e-09
-2.6523e-10
2.48657e-10
3.55952e-10
2.87439e-10
1.78862e-10
8.95075e-11
3.35752e-11
5.52053e-12
-5.04371e-12
-6.8451e-12
-5.35198e-12
-3.29175e-12
-1.68296e-12
-6.98466e-13
-1.98898e-13
6.09532e-15
6.30278e-14
6.00453e-14
4.09465e-14
2.31622e-14
1.11971e-14
4.5109e-15
1.32291e-15
6.35919e-17
-2.89974e-16
-2.9352e-16
-2.0374e-16
-1.17427e-16
-5.8839e-17
-2.56224e-17
-9.24185e-18
-2.24477e-18
2.01942e-19
7.44848e-19
6.44855e-19
4.17809e-19
2.31148e-19
1.132e-19
4.91383e-20
1.83065e-20
5.19003e-21
4.47789e-22
-8.08271e-22
-8.39172e-22
-5.8751e-22
0.999983
1.00003
1.00026
0.999957
0.998132
0.996485
1.00096
1.01677
1.03844
1.04428
1.00347
0.893561
0.716235
0.5
0.287787
0.11792
0.00983943
-0.0389223
-0.0457452
-0.0320359
-0.0146108
-0.00224408
0.00325283
0.00386063
0.0023811
0.000786484
-0.000129739
-0.000381961
-0.000283295
-0.000111564
4.64618e-07
3.63604e-05
2.88357e-05
1.12222e-05
-6.52927e-08
-3.01081e-06
-1.59828e-06
3.11021e-07
1.06578e-06
7.58688e-07
9.02492e-08
-3.98587e-07
-5.40029e-07
-4.24832e-07
-2.18083e-07
-4.16476e-08
5.70822e-08
8.51357e-08
7.15052e-08
4.3853e-08
1.90222e-08
3.19766e-09
-4.03615e-09
-5.63503e-09
-4.56731e-09
-2.81966e-09
-1.35275e-09
-4.32337e-10
1.57612e-11
1.64121e-10
1.6526e-10
1.16594e-10
6.61417e-11
3.03209e-11
9.9926e-12
6.91363e-13
-2.36716e-12
-2.58339e-12
-1.87241e-12
-1.09927e-12
-5.42354e-13
-2.17889e-13
-5.93633e-14
3.39755e-15
1.99049e-14
1.84119e-14
1.23852e-14
6.96242e-15
3.37039e-15
1.37773e-15
4.26988e-16
4.60273e-17
-6.73115e-17
-7.57505e-17
-5.44347e-17
-3.211e-17
-1.64832e-17
-7.42733e-18
-2.8529e-18
-8.28818e-19
-7.15941e-20
1.35829e-19
1.4347e-19
1.00124e-19
5.81379e-20
2.97514e-20
1.36019e-20
5.47881e-21
1.85545e-21
1.73779e-22
0.999994
0.999978
1.00012
1.0003
0.999599
0.997507
0.996583
1.00278
1.01986
1.04061
1.04321
0.998845
0.887594
0.712213
0.5
0.291459
0.123039
0.0139117
-0.0372711
-0.0463857
-0.0338802
-0.0164686
-0.0034118
0.00287827
0.00400546
0.00269556
0.0010377
-1.58167e-05
-0.000374499
-0.000320507
-0.000147965
-1.818e-05
3.28516e-05
3.17078e-05
1.40308e-05
6.13489e-07
-3.72358e-06
-2.34337e-06
2.78021e-07
1.71254e-06
1.65935e-06
8.35658e-07
-1.3612e-09
-4.72721e-07
-5.59484e-07
-4.17523e-07
-2.1431e-07
-5.22333e-08
3.67536e-08
6.42348e-08
5.64196e-08
3.62974e-08
1.7441e-08
4.92027e-09
-1.29702e-09
-3.22471e-09
-2.9737e-09
-2.00609e-09
-1.07509e-09
-4.37567e-10
-9.29081e-11
4.90609e-11
8.09337e-11
6.71833e-11
4.28593e-11
2.24958e-11
9.50589e-12
2.7109e-12
-1.43578e-13
-9.48442e-13
-8.9977e-13
-6.14762e-13
-3.47485e-13
-1.66524e-13
-6.52066e-14
-1.72117e-14
1.25487e-15
5.916e-15
5.37085e-15
3.58108e-15
2.00698e-15
9.75145e-16
4.04961e-16
1.32025e-16
2.09043e-17
-1.39858e-17
-1.85057e-17
-1.3894e-17
-8.41342e-18
-4.42604e-18
-2.05776e-18
-8.32151e-19
-2.72158e-19
-5.08561e-20
1.85001e-20
2.9294e-20
2.26184e-20
1.38841e-20
7.44503e-21
3.15562e-21
1
0.999978
1.00001
1.00021
1.00025
0.999162
0.996984
0.996931
1.00472
1.02272
1.04237
1.04193
0.99441
0.88208
0.708541
0.5
0.294834
0.127814
0.0178165
-0.035558
-0.0468396
-0.0355575
-0.0182612
-0.00461065
0.0024319
0.00409143
0.00298702
0.00129561
0.00011639
-0.000351718
-0.000350545
-0.000183476
-3.82794e-05
2.8161e-05
3.42258e-05
1.67163e-05
7.72969e-07
-5.47018e-06
-4.318e-06
-7.59251e-07
1.83287e-06
2.51849e-06
1.86171e-06
7.90981e-07
-5.48445e-08
-4.63874e-07
-5.11634e-07
-3.72152e-07
-1.9387e-07
-5.68102e-08
1.84098e-08
4.38634e-08
4.09991e-08
2.77129e-08
1.44372e-08
5.21248e-09
2.9865e-10
-1.55296e-09
-1.74777e-09
-1.30043e-09
-7.65198e-10
-3.60617e-10
-1.21051e-10
-7.65322e-12
3.08111e-11
3.37783e-11
2.46634e-11
1.45291e-11
7.12981e-12
2.78777e-12
6.7051e-13
-1.48976e-13
-3.40888e-13
-2.9304e-13
-1.91045e-13
-1.04692e-13
-4.90096e-14
-1.88249e-14
-4.87768e-15
3.73499e-16
1.66417e-15
1.49695e-15
9.93609e-16
5.56702e-16
2.72009e-16
1.14842e-16
3.92051e-17
7.8855e-18
-2.44648e-18
-4.2691e-18
-3.39181e-18
-2.11666e-18
-1.14209e-18
-5.46786e-19
-2.30969e-19
-8.22906e-20
-2.0768e-20
4.45411e-22
5.2602e-21
5.09096e-21
1
0.999992
0.999971
1.00006
1.00029
1.00011
0.998686
0.996583
0.997489
1.00671
1.02537
1.04378
1.04049
0.990161
0.876961
0.705166
0.5
0.297951
0.132284
0.0215636
-0.0338023
-0.0471326
-0.0370806
-0.0199849
-0.00582879
0.00192316
0.00412074
0.00325191
0.00155492
0.00026298
-0.000315181
-0.000373203
-0.000217
-5.83843e-05
2.38865e-05
3.80108e-05
2.07136e-05
1.41245e-06
-7.84221e-06
-7.68008e-06
-3.34105e-06
7.52715e-07
2.74009e-06
2.76745e-06
1.79094e-06
6.91767e-07
-6.61391e-08
-3.98915e-07
-4.25061e-07
-3.06366e-07
-1.63244e-07
-5.51224e-08
4.86317e-09
2.70165e-08
2.75585e-08
1.96506e-08
1.09638e-08
4.60884e-09
1.00492e-09
-5.43903e-10
-9.13809e-10
-7.69671e-10
-4.95533e-10
-2.60202e-10
-1.0785e-10
-2.77325e-11
5.50579e-12
1.41216e-11
1.25492e-11
8.34061e-12
4.60192e-12
2.12788e-12
7.71593e-13
1.50058e-13
-7.19313e-14
-1.12787e-13
-9.01192e-14
-5.65785e-14
-3.02335e-14
-1.38942e-14
-5.26608e-15
-1.35676e-15
9.2769e-17
4.44932e-16
4.00076e-16
2.65399e-16
1.49022e-16
7.33388e-17
3.14907e-17
1.12083e-17
2.6621e-18
-2.86745e-19
-9.24457e-19
-7.9206e-19
-5.12045e-19
-2.83785e-19
-1.39748e-19
-6.13073e-20
-2.35392e-20
-4.58123e-21
1
1
0.99998
0.999981
1.00013
1.00033
0.999903
0.998204
0.996314
0.998219
1.00873
1.02779
1.04489
1.03892
0.986088
0.872186
0.702049
0.5
0.300845
0.136483
0.0251626
-0.0320188
-0.0472866
-0.0384619
-0.0216377
-0.0070562
0.00136122
0.00409671
0.00348796
0.00181078
0.000419274
-0.000268173
-0.000390361
-0.000249357
-7.84333e-05
2.09413e-05
4.47056e-05
2.8051e-05
4.46275e-06
-9.42748e-06
-1.17367e-05
-7.44153e-06
-1.94538e-06
1.73411e-06
3.00657e-06
2.61235e-06
1.56367e-06
5.7601e-07
-4.9794e-08
-3.08976e-07
-3.2604e-07
-2.35504e-07
-1.28871e-07
-4.86453e-08
-3.33546e-09
1.47735e-08
1.71535e-08
1.3e-08
7.71899e-09
3.61384e-09
1.14458e-09
-2.59933e-11
-4.08238e-10
-4.13854e-10
-2.94084e-10
-1.69378e-10
-8.02476e-11
-2.8896e-11
-4.61504e-12
4.10091e-12
5.48915e-12
4.26552e-12
2.63528e-12
1.3759e-12
6.03174e-13
2.03091e-13
2.97043e-14
-2.74535e-14
-3.49026e-14
-2.63678e-14
-1.60571e-14
-8.40757e-15
-3.8097e-15
-1.43241e-15
-3.71295e-16
1.84582e-17
1.13394e-16
1.02825e-16
6.84272e-17
3.85915e-17
1.91545e-17
8.36562e-18
3.09213e-18
8.30565e-19
1.78106e-20
-1.85592e-19
-1.76742e-19
-1.19218e-19
-6.81401e-20
-3.10841e-20
1
1
0.999995
0.99997
1.00001
1.0002
1.00032
0.999638
0.997741
0.996174
0.999086
1.01073
1.03001
1.04575
1.03727
0.982184
0.867717
0.699155
0.5
0.303543
0.14044
0.0286226
-0.030219
-0.0473205
-0.0397129
-0.0232189
-0.00828413
0.000755473
0.00402447
0.00369526
0.00206004
0.000581
-0.000214946
-0.000405888
-0.000283851
-0.000100817
1.82529e-05
5.47143e-05
4.03461e-05
1.2158e-05
-8.04867e-06
-1.4866e-05
-1.21946e-05
-6.07765e-06
-7.66689e-07
2.12089e-06
2.80605e-06
2.22808e-06
1.27182e-06
4.62279e-07
-2.33681e-08
-2.18667e-07
-2.33216e-07
-1.70277e-07
-9.58973e-08
-3.95921e-08
-7.07494e-09
6.86122e-09
9.85892e-09
8.04441e-09
5.07391e-09
2.58409e-09
9.96013e-10
1.81015e-10
-1.36985e-10
-1.98828e-10
-1.60043e-10
-1.00883e-10
-5.29295e-11
-2.27053e-11
-6.89516e-12
-1.48441e-13
1.8804e-12
1.91111e-12
1.34982e-12
7.86216e-13
3.91515e-13
1.63566e-13
5.11801e-14
4.88198e-15
-9.1972e-15
-1.02119e-14
-7.38391e-15
-4.38697e-15
-2.26013e-15
-1.01365e-15
-3.7988e-16
-1.0006e-16
2.29019e-18
2.75967e-17
2.54727e-17
1.70676e-17
9.68826e-18
4.85534e-18
2.15678e-18
8.24972e-19
2.43684e-19
2.68612e-20
-3.3008e-20
-4.11568e-20
1
1
1
0.999986
0.999968
1.00005
1.00027
1.00027
0.999331
0.997313
0.996157
1.00006
1.01269
1.03204
1.04639
1.03556
0.978436
0.863517
0.696457
0.5
0.306067
0.14418
0.0319525
-0.0284122
-0.0472504
-0.0408447
-0.024729
-0.009505
0.000115774
0.00391155
0.00387749
0.00230317
0.000746444
-0.000158727
-0.000424212
-0.000325633
-0.000130552
1.1945e-05
6.60091e-05
5.75363e-05
2.59408e-05
-1.53214e-06
-1.49182e-05
-1.59769e-05
-1.0727e-05
-4.47302e-06
-1.69316e-08
2.05516e-06
2.34959e-06
1.76024e-06
9.77247e-07
3.58896e-07
6.26777e-10
-1.42389e-07
-1.56571e-07
-1.16404e-07
-6.7558e-08
-3.00292e-08
-7.79892e-09
2.33327e-09
5.18474e-09
4.65791e-09
3.12829e-09
1.71122e-09
7.49463e-10
2.20669e-10
-1.2083e-11
-8.16628e-11
-7.93034e-11
-5.52837e-11
-3.17363e-11
-1.53254e-11
-5.93659e-12
-1.4282e-12
3.02358e-13
7.08767e-13
6.12763e-13
4.02543e-13
2.23322e-13
1.06746e-13
4.26949e-14
1.24261e-14
5.1943e-16
-2.81823e-15
-2.84717e-15
-1.98859e-15
-1.15822e-15
-5.89208e-16
-2.62429e-16
-9.84288e-17
-2.65508e-17
-2.50052e-19
6.41667e-18
6.09307e-18
4.12602e-18
2.36201e-18
1.19646e-18
5.40362e-19
2.15088e-19
4.69478e-20
1
1
1
0.999999
0.999976
0.999976
1.0001
1.00032
1.00018
0.998997
0.996934
0.996254
1.00112
1.01461
1.03388
1.04684
1.0338
0.974838
0.85956
0.693933
0.5
0.308437
0.147724
0.0351608
-0.0266054
-0.047091
-0.0418688
-0.0261706
-0.0107133
-0.000548371
0.0037676
0.00404251
0.00254576
0.000918872
-9.89112e-05
-0.000447647
-0.000379611
-0.000174038
-4.32485e-06
7.37069e-05
7.69612e-05
4.53539e-05
1.12601e-05
-9.99956e-06
-1.68805e-05
-1.44303e-05
-8.52085e-06
-3.07294e-06
3.38191e-07
1.73449e-06
1.81229e-06
1.30674e-06
7.15296e-07
2.69504e-07
1.64819e-08
-8.54028e-08
-9.90599e-08
-7.55219e-08
-4.52194e-08
-2.13947e-08
-6.88405e-09
1.01182e-10
2.44127e-09
2.51737e-09
1.81364e-09
1.05924e-09
5.09915e-10
1.87856e-10
3.25508e-11
-2.48421e-11
-3.50498e-11
-2.78345e-11
-1.74959e-11
-9.29048e-12
-4.15219e-12
-1.4392e-12
-2.36582e-13
1.74213e-13
2.37436e-13
1.84016e-13
1.1416e-13
6.0796e-14
2.80435e-14
1.07847e-14
2.92415e-15
-4.08844e-17
-8.06851e-16
-7.60972e-16
-5.17082e-16
-2.96429e-16
-1.49362e-16
-6.6256e-17
-2.49563e-17
-6.93249e-18
-3.09471e-19
1.42396e-18
1.40904e-18
9.68225e-19
5.61253e-19
2.58914e-19
1
1
1
1
0.999993
0.999969
0.999995
1.00016
1.00035
1.00004
0.998649
0.99661
0.996454
1.00224
1.01647
1.03556
1.04713
1.03202
0.971378
0.85582
0.691562
0.499999
0.31067
0.151092
0.0382558
-0.0248045
-0.0468562
-0.0427984
-0.0275502
-0.0119078
-0.00123028
0.00360219
0.00420107
0.00279864
0.00110793
-2.85853e-05
-0.000473345
-0.000447403
-0.000236516
-3.76426e-05
7.08729e-05
9.33544e-05
6.74676e-05
2.95848e-05
6.68161e-07
-1.34108e-05
-1.56402e-05
-1.17013e-05
-6.30531e-06
-2.01865e-06
4.2604e-07
1.32638e-06
1.30767e-06
9.19973e-07
5.01369e-07
1.95507e-07
2.36595e-08
-4.69091e-08
-5.91886e-08
-4.66298e-08
-2.88434e-08
-1.44077e-08
-5.34618e-09
-7.63764e-10
9.74146e-10
1.26096e-09
9.89121e-10
6.16349e-10
3.20499e-10
1.35555e-10
3.93678e-11
-1.2758e-12
-1.30817e-11
-1.27434e-11
-8.89659e-12
-5.15711e-12
-2.55821e-12
-1.06049e-12
-3.23154e-13
-2.087e-14
6.91144e-14
7.31725e-14
5.23525e-14
3.10039e-14
1.59487e-14
7.13258e-15
2.64858e-15
6.70909e-16
-4.74169e-17
-2.18604e-16
-1.95884e-16
-1.30242e-16
-7.37413e-17
-3.68998e-17
-1.6343e-17
-6.19932e-18
-1.77967e-18
-1.42975e-19
2.95951e-19
3.39967e-19
1
1
1
1
1
0.999985
0.999966
1.00002
1.00022
1.00036
0.999873
0.998297
0.996344
0.996747
1.00341
1.01826
1.03708
1.04729
1.03022
0.968049
0.852277
0.689328
0.499998
0.31278
0.154301
0.0412464
-0.0230138
-0.0465599
-0.0436494
-0.0288802
-0.0130948
-0.00193005
0.00342065
0.00436314
0.00307532
0.00132871
6.61947e-05
-0.000491242
-0.000524488
-0.000319031
-9.31584e-05
5.04814e-05
9.99512e-05
8.72043e-05
5.05689e-05
1.61869e-05
-5.12669e-06
-1.32803e-05
-1.28545e-05
-8.7872e-06
-4.42647e-06
-1.29194e-06
3.74656e-07
9.3843e-07
8.91493e-07
6.18105e-07
3.37735e-07
1.36873e-07
2.42828e-08
-2.31893e-08
-3.34058e-08
-2.74493e-08
-1.7575e-08
-9.21595e-09
-3.79328e-09
-9.23856e-10
2.7186e-10
5.76307e-10
5.06322e-10
3.38138e-10
1.88304e-10
8.79375e-11
3.20775e-11
6.05628e-12
-3.39526e-12
-5.1609e-12
-4.15463e-12
-2.64215e-12
-1.43246e-12
-6.68117e-13
-2.56758e-13
-6.66892e-14
5.28449e-15
2.32674e-14
2.11453e-14
1.42276e-14
8.10857e-15
4.04978e-15
1.76335e-15
6.3497e-16
1.50975e-16
-1.90328e-17
-5.65265e-17
-4.8744e-17
-3.18641e-17
-1.78706e-17
-8.90127e-18
-3.94347e-18
-1.52448e-18
-2.90537e-19
1
1
1
1
1
0.999999
0.999977
0.999969
1.00006
1.00027
1.00034
0.999674
0.997952
0.996139
0.997122
1.00461
1.01998
1.03846
1.04732
1.02841
0.964842
0.84891
0.687216
0.499995
0.314781
0.157368
0.0441431
-0.0212351
-0.046215
-0.0444407
-0.0301801
-0.0142908
-0.00265879
0.0032187
0.00453224
0.00338693
0.00159802
0.000204385
-0.000484259
-0.000598878
-0.000416114
-0.000171397
7.92039e-06
9.04262e-05
9.85499e-05
6.97309e-05
3.39786e-05
7.0461e-06
-7.17345e-06
-1.12716e-05
-9.70977e-06
-6.22061e-06
-2.98291e-06
-8.17191e-07
2.7514e-07
6.22011e-07
5.78176e-07
3.98126e-07
2.19219e-07
9.2441e-08
2.11259e-08
-9.86326e-09
-1.7771e-08
-1.54198e-08
-1.02492e-08
-5.62114e-09
-2.5074e-09
-7.87757e-10
-1.51977e-11
2.31827e-10
2.41745e-10
1.75007e-10
1.04115e-10
5.26341e-11
2.20371e-11
6.61752e-12
1.95415e-13
-1.7129e-12
-1.75452e-12
-1.2495e-12
-7.3893e-13
-3.78261e-13
-1.66595e-13
-5.91707e-14
-1.23923e-14
3.89997e-15
7.08284e-15
5.79993e-15
3.71688e-15
2.05147e-15
9.9914e-16
4.25194e-16
1.4913e-16
3.35182e-17
-5.9322e-18
-1.40335e-17
-1.17612e-17
-7.58928e-18
-4.23993e-18
-1.86126e-18
1
1
1
1
1
1
0.999994
0.99997
0.999978
1.0001
1.00032
1.00029
0.999453
0.997619
0.995995
0.997569
1.00583
1.02164
1.03971
1.04725
1.02661
0.961751
0.845703
0.685211
0.499989
0.316683
0.160312
0.0469609
-0.0194645
-0.0458303
-0.0451917
-0.0314753
-0.0155227
-0.00344126
0.00297785
0.00469943
0.00373571
0.00192831
0.00040521
-0.000431265
-0.000652206
-0.000515254
-0.000266625
-5.68694e-05
6.10052e-05
9.62663e-05
8.21253e-05
5.03687e-05
2.09578e-05
1.82595e-06
-6.94919e-06
-8.64723e-06
-6.8738e-06
-4.19852e-06
-1.94486e-06
-5.15651e-07
1.77831e-07
3.89328e-07
3.58466e-07
2.46674e-07
1.37386e-07
6.02437e-08
1.65014e-08
-3.11955e-09
-8.85991e-09
-8.26514e-09
-5.72803e-09
-3.27918e-09
-1.56213e-09
-5.73635e-10
-1.00782e-10
7.41152e-11
1.06197e-10
8.5264e-11
5.43583e-11
2.94604e-11
1.36072e-11
5.04456e-12
1.11086e-12
-3.34266e-13
-6.43786e-13
-5.40793e-13
-3.52599e-13
-1.96498e-13
-9.56188e-14
-3.9877e-14
-1.30163e-14
-1.96527e-15
1.54839e-15
2.00697e-15
1.52278e-15
9.38053e-16
5.03969e-16
2.40261e-16
1.00289e-16
3.44166e-17
7.38339e-18
-1.62454e-18
-3.33495e-18
-2.82895e-18
1
1
1
1
1
1
1
0.999988
0.999965
0.999994
1.00015
1.00035
1.00022
0.999213
0.997304
0.995909
0.998078
1.00706
1.02322
1.04084
1.04709
1.02481
0.958768
0.842638
0.683296
0.499976
0.318501
0.163157
0.0497233
-0.0176876
-0.0454057
-0.0459166
-0.0327922
-0.0168254
-0.00431496
0.00266372
0.00483926
0.00410916
0.0023211
0.000681843
-0.000312265
-0.000663247
-0.000598622
-0.000367002