/*--------------------------------*- C++ -*----------------------------------*\
  =========                 |
  \\      /  F ield         | OpenFOAM: The Open Source CFD Toolbox
   \\    /   O peration     | Website:  https://openfoam.org
    \\  /    A nd           | Version:  7
     \\/     M anipulation  |
\*---------------------------------------------------------------------------*/
FoamFile
{
    version     2.0;
    format      ascii;
    class       volScalarField;
    location    "0.78";
    object      T;
}
// * * * * * * * * * * * * * * * * * * * * * * * * * * * * * * * * * * * * * //

dimensions      [0 0 0 1 0 0 0];

internalField   nonuniform List<scalar> 
45544
(
0
0
0
0
0
0
0
0
0
0
0
0
0
0
0
0
0
0
0
0
0
0
0
0
0
0
0
0
0
0
0
0
0
0
0
0
0
0
0
0
0
0
0
0
0
0
0
0
0
0
0
0
0
0
0
0
0
0
0
0
0
0
0
0
0
0
0
0
0
0
0
0
0
0
0
0
0
0
0
0
0
0
0
0
0
0
0
0
0
0
0
0
0
0
0
0
0
0
0
0
0
0
0
0
0
0
0
0
0
0
0
0
0
0
0
0
0
0
0
0
0
0
0
0
0
0
0
0
0
0
0
0
0
0
0
0
0
0
0
0
0
0
0
0
0
0
0
0
0
0
0
0
0
0
0
0
0
0
0
0
0
0
0
0
0
0
0
0
0
0
0
0
0
0
0
0
0
0
0
0
0
0
0
0
0
0
0
0
0
0
0
0
0
0
0
0
0
0
0
0
0
0
5.38282e-40
1.86584e-33
-1.8817e-30
4.43678e-28
-2.31889e-28
-1.0957e-25
2.02734e-24
-9.40835e-24
-1.50275e-23
-4.78345e-24
-2.54977e-26
-9.29184e-24
-7.28103e-24
-6.47511e-24
5.15491e-24
6.00435e-24
5.45507e-24
2.07821e-23
-4.73757e-22
-2.98875e-23
1.10862e-21
4.19318e-21
7.06123e-21
2.66903e-21
4.89663e-20
8.43467e-20
7.71404e-20
4.38212e-20
4.30219e-20
4.82563e-20
1.48256e-20
-2.35657e-20
-2.50862e-20
-1.47124e-20
-9.02392e-20
-1.24996e-19
-1.54185e-19
-1.48939e-19
-5.17551e-20
-4.72796e-20
5.06634e-20
1.29868e-19
7.05526e-20
9.90689e-20
-8.41892e-20
-2.57549e-19
-6.69594e-19
-8.13345e-19
-9.58058e-19
-5.17242e-19
6.74488e-20
5.24503e-19
1.0584e-18
1.55985e-18
1.30008e-18
1.17339e-18
8.46813e-19
1.91394e-19
-3.0266e-19
-8.02175e-19
-9.17034e-19
-9.27001e-19
-5.44414e-19
-4.98891e-19
-3.66111e-19
-1.03762e-19
-1.35223e-20
7.70582e-20
9.54686e-20
1.13288e-19
8.89401e-20
8.62322e-20
6.95764e-20
3.55587e-20
2.05075e-20
9.91049e-21
2.2104e-21
-2.42073e-21
-4.19254e-21
-5.2052e-21
-4.31709e-21
-3.26074e-21
-2.79678e-21
-1.61105e-21
-1.36847e-21
-1.00041e-21
-4.02219e-22
-2.08754e-22
-5.21047e-23
-7.51103e-24
2.17358e-23
4.06533e-23
4.19487e-23
3.42261e-23
8.96471e-23
2.08357e-21
-1.05366e-18
0
0
0
0
0
0
0
0
0
0
0
0
0
0
0
0
0
0
0
0
0
0
0
0
0
0
0
0
0
0
0
0
0
0
0
0
0
0
0
0
0
0
0
0
2.65489e-120
2.38227e-120
4.44097e-113
7.07894e-113
4.78082e-109
2.74887e-109
-5.42381e-107
-1.0842e-106
7.01428e-107
-3.50078e-106
-9.02623e-103
-1.49917e-103
2.67126e-101
6.90002e-101
1.08568e-101
3.76707e-101
-5.49062e-100
2.44584e-99
-6.01341e-99
8.95627e-100
-1.02932e-96
1.08057e-97
-6.15823e-95
-1.03968e-95
-2.96484e-93
-1.50104e-93
-1.10321e-92
-1.37845e-92
-1.13197e-92
-1.87971e-92
3.62566e-92
-1.52527e-91
2.4462e-92
-4.58466e-91
7.10976e-92
-3.96406e-91
2.09486e-91
-8.56243e-91
5.70002e-91
-1.39319e-90
4.59186e-90
-8.32743e-90
3.38774e-90
9.25328e-90
1.03579e-88
1.34295e-88
9.02393e-89
1.96812e-88
1.17887e-89
2.45014e-88
-2.25558e-88
3.81824e-88
-3.04187e-87
-6.7718e-88
-1.98201e-87
-2.614e-88
-5.87838e-87
1.40779e-86
-1.51279e-86
7.75071e-87
-4.20079e-86
-2.606e-86
3.0479e-86
-8.68618e-85
6.29793e-84
-1.93745e-83
1.3435e-83
3.56204e-83
-7.85086e-83
1.30599e-82
6.01257e-83
-3.1101e-83
-3.5618e-81
4.9571e-82
-2.67045e-79
1.84484e-79
-3.94647e-79
8.64789e-79
-7.13926e-79
8.68352e-79
-6.7947e-79
-1.61936e-78
2.41178e-78
-1.37676e-77
4.95463e-77
-1.3716e-76
1.45083e-76
-7.54267e-77
6.27674e-76
9.56757e-76
5.38023e-76
3.61027e-75
-3.5525e-76
5.07508e-75
-3.13405e-75
8.47081e-75
-5.48098e-75
6.36188e-75
-6.19381e-76
-5.21214e-76
1.34676e-74
5.38904e-75
-1.34156e-74
4.07036e-74
-1.8988e-73
4.387e-73
-1.68079e-73
1.60261e-73
-2.01497e-73
1.53044e-73
-4.29681e-73
-1.4256e-72
3.88466e-73
-3.42786e-72
2.94264e-72
-5.60806e-72
1.07807e-71
-1.61423e-71
1.04648e-71
-1.33539e-71
2.41725e-71
-3.60646e-71
1.88156e-71
5.11819e-71
-7.63118e-72
1.29097e-70
-4.9388e-71
1.85329e-70
-1.24949e-70
1.81033e-70
-2.00613e-70
2.39517e-71
-2.21811e-70
2.45025e-70
-2.33759e-70
-6.52322e-71
-1.42479e-70
-7.06064e-71
7.7643e-71
-7.66395e-70
2.61903e-70
-1.02446e-69
7.92266e-70
-2.27767e-69
8.10204e-70
-2.95079e-69
1.52991e-69
-4.73006e-69
2.72772e-69
-4.13763e-69
3.06822e-69
-4.5521e-69
4.73492e-69
-6.85371e-69
5.57721e-69
-6.2966e-69
6.69626e-69
-1.13587e-68
1.08357e-68
-1.36016e-68
1.2218e-68
-7.89988e-69
1.35726e-68
-1.78977e-68
9.25206e-69
-5.93472e-70
6.63877e-69
1.30348e-68
1.30134e-68
7.37411e-69
2.65507e-68
-2.4391e-68
1.72746e-68
2.9589e-69
7.31445e-69
1.39961e-68
-3.21219e-69
1.47081e-68
3.55236e-68
-3.50886e-68
5.89639e-68
7.01752e-68
2.74312e-68
3.38539e-68
4.34722e-68
-5.88792e-68
1.00439e-67
-4.27356e-68
1.04735e-67
6.69787e-68
1.20211e-67
-4.07516e-68
1.56834e-67
-1.77016e-67
2.0934e-67
-2.16948e-67
3.84124e-67
-5.58889e-67
3.68109e-67
-1.99989e-67
3.82751e-67
1.02835e-67
2.88194e-67
1.18348e-67
2.36237e-67
6.85737e-68
4.98138e-67
2.75601e-67
3.03641e-67
8.58909e-68
5.0073e-67
-7.81466e-67
9.15953e-67
-1.03415e-66
1.08651e-66
-8.11367e-67
1.26841e-66
-1.22809e-66
1.55644e-66
-1.76983e-66
1.79756e-66
-1.99546e-66
2.2358e-66
-2.1179e-66
2.22522e-66
-1.33677e-66
2.07276e-66
-1.04787e-66
1.97733e-66
-1.04713e-66
1.8433e-66
-7.98264e-67
1.67819e-66
-7.59146e-67
1.83379e-66
-1.47568e-66
1.91557e-66
-8.10103e-67
1.8481e-66
-8.38489e-67
1.61765e-66
-7.78284e-67
1.63742e-66
-9.01197e-67
1.44771e-66
-6.39427e-67
1.2427e-66
-7.20914e-67
1.16999e-66
-5.07136e-67
9.73195e-67
-5.32256e-67
8.60801e-67
-6.4707e-67
7.09095e-67
-5.13361e-67
6.35333e-67
-2.56897e-67
5.3547e-67
-2.70809e-67
4.34662e-67
-1.35709e-67
3.79771e-67
-1.73041e-67
1.86613e-67
-1.71789e-67
1.6439e-67
-1.43636e-67
1.5228e-68
-9.5729e-70
-1.35148e-67
-1.8128e-67
-7.90181e-68
-1.00078e-67
-9.92408e-68
5.77545e-68
-1.53022e-67
6.59947e-68
-1.63519e-67
2.95203e-68
-1.58918e-67
7.36107e-68
-1.76532e-67
5.85163e-68
-1.76546e-67
1.75491e-68
-1.52016e-67
2.99645e-68
-1.33064e-67
3.58275e-68
-1.12246e-67
3.88497e-68
-1.02207e-67
3.11353e-68
-8.95864e-68
2.58386e-68
-4.3869e-68
4.52176e-68
-4.11432e-68
4.63602e-68
-3.48294e-68
5.35046e-69
-1.6803e-68
7.95223e-69
-7.49529e-69
1.95262e-68
-4.55088e-69
1.36183e-68
-1.70686e-69
6.32383e-70
1.57473e-68
2.37112e-68
2.19842e-68
-5.87146e-69
4.69874e-66
-3.10591e-67
-1.26144e-64
-1.70088e-64
-1.93518e-63
7.938e-64
2.8883e-60
3.34514e-62
-1.30626e-58
-1.2978e-58
3.2385e-57
2.32186e-57
-5.98444e-55
-8.47668e-56
1.36484e-53
1.45654e-53
-5.91429e-53
-2.61281e-52
1.34085e-52
1.78744e-51
-6.56505e-52
-6.47452e-52
-1.6304e-51
4.37418e-51
-6.46014e-48
8.99937e-50
2.76066e-46
1.13842e-46
4.60229e-45
-3.93697e-45
-9.47562e-44
-7.97304e-44
-3.84664e-44
8.1904e-43
-2.87366e-43
-1.45578e-42
3.76799e-41
3.86573e-42
-4.06273e-40
9.53973e-18
-1.01275e-16
3.66767e-16
-7.61296e-15
1.49372e-12
-1.12735e-11
6.01771e-12
6.56792e-09
4.79415e-08
1.51835e-07
2.7575e-07
3.59061e-07
3.8409e-07
3.86179e-07
3.84345e-07
3.81138e-07
3.74854e-07
3.51008e-07
2.9467e-07
2.11478e-07
1.27207e-07
6.39085e-08
2.59997e-08
8.79879e-09
2.23724e-09
4.00412e-10
4.31137e-11
-2.94832e-12
-2.06649e-12
-2.57402e-13
2.06914e-14
3.58841e-15
-3.92457e-16
-5.7751e-18
3.85643e-18
-3.16019e-19
1.29715e-20
-7.35537e-23
-2.39935e-23
2.07167e-24
-1.06643e-25
3.44853e-27
-3.38697e-29
-4.74685e-30
3.37434e-31
-8.85703e-33
-4.966e-36
5.24474e-36
-1.90481e-38
1.00253e-11
-7.56776e-11
-6.51386e-11
6.13495e-11
1.59914e-11
-5.42795e-11
2.45871e-11
-7.37675e-11
-8.44085e-11
-2.70763e-12
-3.47727e-11
5.83004e-11
1.69094e-11
9.0074e-11
8.9387e-11
-3.16124e-11
4.23498e-11
-4.4513e-12
-5.27186e-11
8.84951e-12
2.22299e-11
3.40617e-11
5.33258e-11
-1.19565e-10
1.21014e-10
-1.66008e-10
-1.24168e-10
-5.96486e-10
-6.59659e-10
-6.0304e-10
-2.87017e-10
2.03373e-10
-1.40992e-10
1.07641e-09
9.42194e-11
8.23472e-10
1.1669e-09
4.1771e-10
-3.44298e-10
4.71512e-09
-7.54238e-09
1.75902e-09
-4.11706e-09
-1.37393e-08
6.59841e-09
8.01927e-09
-4.14728e-09
-6.3711e-10
-4.81778e-09
-1.09705e-08
-9.07999e-09
-5.55605e-09
8.48061e-09
3.67796e-10
7.91264e-10
5.81113e-09
-1.31467e-08
-1.25902e-08
1.48034e-08
4.07515e-09
-4.64401e-09
9.75232e-09
-1.17609e-08
-1.76955e-08
1.22928e-08
2.38078e-09
-4.23221e-09
7.99993e-09
-3.50304e-09
-8.08669e-09
1.01439e-09
-1.04885e-10
-4.32582e-09
-4.32975e-09
4.46541e-10
-2.60263e-09
-1.20082e-09
-1.13596e-11
-1.17878e-11
-3.27384e-12
-1.37039e-11
2.44483e-11
-3.96803e-11
7.21918e-11
1.63369e-10
-3.10778e-11
4.63471e-10
-4.67862e-11
2.78612e-11
-1.36811e-11
1.43852e-11
-8.10728e-13
9.63044e-12
7.89557e-12
-2.80768e-11
5.19373e-11
-3.20577e-11
1.9969e-11
-2.9543e-19
0
0
3.34498e-46
7.97324e-36
1.46841e-31
9.87136e-30
6.21636e-27
1.37193e-27
1.81976e-25
-1.95723e-24
2.01419e-23
8.90553e-24
-1.14398e-24
-1.48748e-23
-5.38472e-24
-1.16526e-23
-5.26326e-24
-6.38852e-24
-8.69487e-24
1.17747e-23
-5.64048e-23
1.46515e-21
-4.65763e-21
-1.66593e-21
-8.69054e-21
3.99609e-21
-1.05634e-20
-6.08059e-20
-4.63885e-20
1.66143e-21
3.17773e-20
1.06665e-20
1.73677e-20
4.00325e-20
3.27275e-20
-1.45774e-20
7.91363e-21
2.47764e-20
6.27198e-21
3.27761e-20
-8.98399e-20
-3.36513e-20
-5.17674e-21
-1.31416e-19
6.0231e-20
6.77299e-20
2.05801e-20
-3.16415e-19
-5.24848e-19
-7.48321e-19
-9.14529e-19
-4.10286e-19
-4.97703e-19
5.2234e-19
5.67456e-19
1.74572e-18
1.7721e-18
1.60436e-18
1.22432e-18
5.11649e-19
2.8945e-20
-4.76386e-19
-8.18285e-19
-7.60858e-19
-9.56022e-19
-5.67596e-19
-4.30831e-19
-2.39027e-19
-5.53835e-20
5.06491e-20
8.60656e-20
1.30674e-19
1.21237e-19
1.02197e-19
7.6426e-20
5.95722e-20
2.8122e-20
1.61255e-20
5.61071e-21
-2.21175e-22
-4.94941e-21
-4.80426e-21
-4.23594e-21
-4.51817e-21
-3.28426e-21
-2.55427e-21
-1.68528e-21
-1.17863e-21
-8.29463e-22
-3.63781e-22
-1.54337e-22
-2.53911e-23
5.51516e-24
3.29097e-23
4.04723e-23
3.52848e-23
1.35253e-23
-3.29632e-22
0
6.48357e-20
0
1.30397e-17
-2.49749e-17
-5.12267e-40
-5.8589e-17
1.69355e-16
1.78378e-15
4.24348e-14
4.3153e-12
-6.95817e-11
1.15567e-09
2.08316e-08
9.14413e-08
2.14482e-07
3.25163e-07
3.76074e-07
3.86532e-07
3.85455e-07
3.82542e-07
3.79307e-07
3.65881e-07
3.2741e-07
2.5449e-07
1.68318e-07
9.25604e-08
4.23551e-08
1.5696e-08
4.61944e-09
1.00529e-09
1.46431e-10
6.83362e-12
-3.50496e-12
-8.71421e-13
-3.17013e-14
1.33544e-14
-1.35152e-17
-1.42614e-16
1.13944e-17
-1.06936e-20
-6.25773e-20
6.00691e-21
-3.89771e-22
1.92731e-23
-8.63797e-25
3.77632e-26
-1.67143e-27
6.25451e-29
-1.52201e-30
-8.92527e-34
1.31561e-33
-2.94352e-35
-3.55717e-37
-9.03452e-12
6.95437e-39
-2.21116e-09
-1.02778e-09
-2.30408e-09
2.52701e-11
-1.46786e-11
1.96329e-11
-2.84865e-11
-3.10308e-11
3.33254e-11
-2.45166e-10
-2.51466e-10
1.19855e-09
3.09442e-12
-1.49295e-09
-1.3569e-11
1.68456e-11
-3.447e-12
4.12292e-12
-7.40138e-12
2.14359e-11
2.9349e-12
-9.48243e-12
1.08485e-11
-6.139e-13
0
0
-1.00222e-37
-5.19209e-32
1.15355e-30
-4.94994e-27
3.17894e-26
5.35555e-25
-8.06766e-24
-2.10374e-24
-5.88753e-24
-9.83613e-24
-2.09097e-23
-2.02824e-23
-2.92875e-23
-3.07974e-23
-3.97747e-23
-4.7723e-23
-3.30053e-23
-1.74196e-22
6.3801e-22
4.26564e-22
-1.13319e-21
1.54531e-21
3.8306e-21
-1.32285e-20
-8.38079e-20
-6.55799e-20
-4.06314e-20
3.06869e-20
3.97593e-20
4.72763e-20
1.31338e-19
1.49406e-19
9.45292e-20
1.22955e-19
2.74692e-19
1.56413e-19
9.35972e-20
9.26339e-20
3.02753e-20
-1.43449e-19
-2.50977e-19
2.14257e-19
4.46666e-19
8.07963e-19
1.4401e-18
1.22853e-18
1.3584e-18
3.2369e-19
-1.01231e-18
-2.20713e-18
-2.77623e-18
-3.2712e-18
-2.29298e-18
-1.00493e-18
-1.61252e-19
5.96117e-19
1.22539e-18
1.43179e-18
1.76969e-18
1.3679e-18
1.13367e-18
1.44837e-19
1.85301e-19
-7.8897e-22
-2.7622e-19
-2.29808e-19
-2.32215e-19
-1.78956e-19
-8.99123e-20
-7.47098e-20
-5.8242e-20
-3.25724e-20
1.16194e-20
-6.31708e-22
1.22805e-20
1.09998e-20
7.90558e-21
5.37196e-21
5.84963e-21
4.28153e-21
1.45616e-21
1.97363e-21
6.54598e-22
6.30628e-22
4.42114e-22
-2.42842e-22
1.61688e-23
-2.06512e-23
-4.92558e-23
-3.00916e-23
-3.26493e-23
-2.01561e-23
-1.11646e-23
-9.96991e-24
3.84289e-22
-2.24945e-20
6.43141e-16
-1.48925e-14
3.16725e-12
-3.47075e-11
2.2204e-10
1.26965e-08
7.46612e-08
2.0732e-07
3.43229e-07
4.18173e-07
4.35798e-07
4.36392e-07
4.33037e-07
4.30495e-07
4.19867e-07
3.86168e-07
3.11639e-07
2.14096e-07
1.22584e-07
5.85182e-08
2.2491e-08
7.05602e-09
1.61858e-09
2.54065e-10
1.82468e-11
-4.58401e-12
-1.4894e-12
-9.84311e-14
2.14932e-14
7.41447e-16
-2.77826e-16
1.56081e-17
7.06555e-19
-1.51056e-19
1.21662e-20
-6.96278e-22
3.14516e-23
-1.38043e-24
5.91141e-26
-2.94965e-27
1.28357e-28
-3.6698e-30
2.71024e-32
2.29462e-33
-6.90862e-35
-5.72861e-37
2.13566e-38
4.39191e-11
-2.60434e-11
-2.92183e-11
-4.46126e-11
-1.18534e-10
8.75912e-11
-9.06768e-11
-3.1398e-10
2.94461e-11
-2.62414e-10
-1.92588e-11
1.07185e-11
-9.0629e-12
3.62903e-13
3.02468e-12
-9.69462e-13
-2.40723e-11
3.05846e-11
-1.93819e-11
1.00245e-11
0
-1.1118e-42
-4.19994e-34
-1.72821e-30
-3.43265e-28
-2.53232e-26
-3.24745e-26
-1.6953e-24
1.04784e-23
-1.63608e-23
-1.23403e-23
-3.9945e-23
-3.32237e-23
-2.858e-23
-3.14309e-23
-2.0609e-23
-2.74402e-23
-3.73311e-23
-1.08127e-22
4.82079e-22
-5.80473e-21
2.88365e-21
-9.7455e-21
-1.06138e-21
-1.09729e-20
3.27618e-20
8.54507e-20
5.76434e-20
4.51717e-20
4.32851e-20
4.59707e-20
-1.01312e-20
-6.79041e-21
9.19635e-20
1.54077e-19
1.04476e-19
-1.06702e-19
-1.4742e-19
-1.36343e-19
5.02366e-20
5.57975e-20
2.08009e-19
3.00966e-19
8.60016e-20
2.29161e-19
9.7754e-19
1.19575e-18
4.52354e-19
1.02697e-19
-8.55969e-19
-1.67004e-18
-2.27331e-18
-2.70698e-18
-3.30615e-18
-1.74878e-18
-1.31079e-18
3.28373e-19
1.27995e-18
1.20282e-18
1.56364e-18
1.12068e-18
1.08906e-18
5.31609e-19
4.38609e-19
1.00692e-19
-2.2667e-19
-1.99617e-19
-2.53585e-19
-1.57262e-19
-1.88135e-19
-8.8557e-20
-8.74621e-20
-3.26434e-20
7.74553e-21
-9.0455e-22
1.05623e-20
1.29842e-20
1.12202e-20
7.98964e-21
5.41793e-21
3.98259e-21
2.50076e-21
2.28803e-21
5.22948e-22
1.04934e-21
5.00675e-22
-7.06638e-23
1.03277e-22
-3.90775e-23
-6.77818e-23
-4.01924e-23
-4.47882e-23
-2.53835e-23
-1.70953e-23
-3.05288e-24
2.48915e-22
3.99191e-21
5.06492e-12
-1.09187e-10
2.79017e-09
3.52473e-08
1.34084e-07
2.79439e-07
3.91349e-07
4.31266e-07
4.38495e-07
4.34216e-07
4.3169e-07
4.26429e-07
4.06213e-07
3.53964e-07
2.63972e-07
1.65256e-07
8.69383e-08
3.69305e-08
1.3007e-08
3.48869e-09
6.74287e-10
8.28994e-11
-1.51012e-12
-3.16313e-12
-5.07014e-13
1.9961e-14
7.57851e-15
-5.48111e-16
-3.58908e-17
7.79271e-18
-5.1541e-19
1.15398e-20
8.01623e-22
-9.67834e-23
6.4072e-24
-3.13045e-25
1.13547e-26
-2.43422e-28
-4.33871e-30
6.19467e-31
-2.04024e-32
8.43714e-35
1.03476e-35
-7.76954e-38
-1.64501e-39
2.82034e-11
2.57825e-12
6.56139e-11
3.65321e-11
3.55088e-11
4.93177e-11
-2.40905e-10
5.48934e-10
7.35815e-10
-1.42541e-09
-4.39283e-12
3.51653e-13
-1.66631e-12
-1.80572e-12
-8.80812e-12
1.58502e-11
-6.01592e-12
-4.14533e-12
3.65079e-12
-2.57865e-12
0
-1.44208e-16
2.2165e-13
2.31961e-15
4.95701e-16
-1.51614e-13
0
0
0
0
0
0
0
0
0
0
0
0
0
0
0
0
0
0
0
0
0
0
0
0
0
0
0
0
0
0
0
0
0
0
0
0
0
0
0
0
0
0
0
0
0
0
0
0
0
0
0
0
0
0
0
0
0
0
0
0
0
0
0
0
0
0
0
0
0
0
0
0
0
0
0
0
0
0
0
0
0
0
0
0
0
0
0
0
0
0
0
0
0
0
0
0
0
0
0
0
0
0
0
0
0
0
0
0
0
0
0
0
0
0
0
0
0
0
0
0
0
0
0
0
0
0
0
0
0
0
0
0
0
0
0
0
0
0
0
0
0
0
0
0
0
0
0
0
0
0
0
0
0
0
0
0
0
0
0
0
0
0
0
0
0
0
0
0
0
0
0
0
0
0
0
0
0
0
0
0
0
0
0
0
0
0
0
0
0
0
0
0
0
0
0
0
-1.56443e-16
-6.44054e-17
-1.52766e-16
8.78423e-16
-2.76269e-36
-1.60417e-30
-3.69988e-28
-7.5096e-26
2.99588e-25
5.53402e-24
-3.84551e-23
2.49569e-25
-4.17174e-23
4.9867e-24
-7.41715e-23
-8.15147e-23
-1.04663e-22
-1.52309e-22
-1.95235e-22
-1.80095e-22
-3.72248e-23
-8.25382e-22
-2.08528e-21
4.5404e-20
2.15127e-20
4.07761e-20
4.51989e-21
-1.11372e-19
-3.36094e-19
-5.54528e-20
-3.01092e-19
-1.13112e-19
1.28053e-19
9.35586e-20
4.17957e-19
4.25245e-19
1.76951e-19
1.95885e-19
1.41075e-18
1.54333e-18
6.42956e-19
8.12968e-19
2.07181e-19
-1.75173e-18
-2.11083e-18
1.54117e-19
-1.95692e-19
6.24855e-19
7.85511e-18
1.16761e-17
2.15607e-17
2.36016e-17
1.3245e-17
8.52572e-18
-2.13797e-18
-1.47245e-17
-2.64812e-17
-2.6683e-17
-3.11535e-17
-2.76023e-17
-1.38451e-17
-5.81258e-18
5.8799e-18
1.08832e-17
1.36533e-17
1.10717e-17
1.14372e-17
1.00242e-17
4.743e-18
2.95424e-18
9.98709e-19
-3.41268e-19
-9.78977e-19
-1.36563e-18
-1.58271e-18
-1.41427e-18
-8.73983e-19
-7.24779e-19
-3.72421e-19
-2.15244e-19
-1.29432e-19
-1.91174e-20
2.86431e-20
4.47407e-20
4.59149e-20
5.38706e-20
3.9392e-20
3.37861e-20
2.85057e-20
1.44809e-20
1.13627e-20
6.65811e-21
2.70137e-21
2.05311e-21
6.1435e-22
2.97331e-22
-9.84503e-24
-5.55455e-22
6.2234e-21
-3.48637e-19
4.8982e-12
0
-5.54148e-19
0
0
0
0
0
0
0
0
0
0
0
0
0
0
0
0
0
0
0
0
0
0
0
0
0
0
0
0
0
0
0
0
0
0
0
0
0
0
0
0
0
0
0
0
6.97495e-119
-5.46723e-121
-6.27409e-109
6.69805e-111
6.07853e-106
7.12024e-106
-7.9e-105
-1.11924e-104
4.49433e-105
1.68384e-103
-8.80424e-101
-2.17319e-101
2.93934e-99
5.03985e-99
-5.90386e-99
2.58155e-98
4.3631e-97
9.99924e-97
4.26444e-97
3.2516e-97
-6.08749e-95
-5.21004e-96
-6.21208e-93
-2.129e-93
-3.06441e-91
-2.72348e-91
-4.96507e-91
-5.28645e-91
-2.56025e-91
-1.73796e-90
-7.56842e-90
-2.22189e-89
-1.11103e-89
-4.29935e-89
1.25598e-90
-4.3522e-89
1.06816e-89
-8.53061e-89
-5.00397e-89
-1.51707e-88
5.42332e-88
-1.03179e-87
2.19451e-87
3.48654e-87
7.31517e-87
8.2638e-87
3.781e-87
9.61518e-87
-4.27929e-87
2.45933e-86
-9.23423e-87
1.96793e-86
-1.11038e-85
8.74408e-86
-1.50246e-85
1.78761e-85
-6.16391e-85
5.01411e-85
-1.16873e-84
1.11499e-85
-2.52843e-84
-4.12721e-84
3.89993e-83
-2.19569e-82
1.68374e-81
-3.77531e-82
5.88616e-82
4.822e-81
-3.2329e-81
1.29023e-80
-4.86758e-80
-6.96307e-80
6.30389e-79
-4.6846e-78
-2.00629e-77
-6.84968e-78
-7.31544e-77
2.22222e-76
-9.98632e-77
1.06075e-76
-1.91236e-76
-3.69831e-77
-1.35827e-76
-2.75666e-75
7.45157e-75
-2.41483e-74
1.46441e-74
-1.30742e-74
7.59716e-74
1.07766e-73
6.57963e-75
2.66207e-73
-9.18019e-74
3.16966e-73
-1.67089e-73
2.51043e-73
-2.50193e-73
7.90611e-74
5.45375e-73
-1.75373e-72
1.24537e-72
6.98389e-73
3.5189e-72
4.40757e-72
-4.57009e-72
3.13039e-71
-1.52701e-71
4.36655e-71
-2.57911e-71
2.35271e-71
-3.0073e-71
3.61246e-71
-5.01131e-72
-3.6776e-71
-4.98806e-71
-1.82044e-70
2.69624e-70
-1.09709e-69
6.43069e-70
-1.19794e-69
1.48307e-69
-5.69912e-70
1.4586e-69
1.93583e-69
-1.03115e-70
3.67657e-69
-1.60916e-69
5.58017e-69
-3.0837e-69
7.73611e-69
-4.92129e-69
8.33256e-69
-1.18546e-68
9.58612e-69
-1.01498e-68
1.14238e-69
-1.57656e-68
6.75081e-69
1.20862e-70
-3.566e-68
4.373e-69
-5.17824e-68
1.57236e-68
-6.68424e-68
1.48254e-68
-9.93886e-68
3.01592e-68
-1.15924e-67
3.84685e-68
-7.38257e-68
6.52608e-68
-1.34665e-67
5.78684e-68
-2.46659e-67
1.41081e-67
-3.86113e-67
2.39476e-67
-3.45415e-67
3.12027e-67
-6.46001e-67
4.94805e-67
-1.10826e-66
8.04216e-67
-8.68865e-67
8.02723e-67
-8.40549e-67
4.85841e-67
-2.18568e-67
8.65238e-67
-1.20463e-66
1.07074e-66
-1.93717e-66
1.23438e-66
-2.38858e-66
1.48521e-66
-2.32584e-66
1.73849e-66
-2.11395e-66
2.09709e-66
-1.47239e-66
2.37858e-66
-3.88496e-66
3.18372e-66
-3.14146e-66
4.55951e-66
-4.56875e-66
6.07565e-66
-6.61005e-66
7.67697e-66
-1.01206e-65
1.09607e-65
-1.33903e-65
1.31792e-65
-1.01074e-65
1.74108e-65
-9.98505e-66
2.10772e-65
3.30995e-66
1.6117e-65
-3.58588e-66
1.28528e-65
-3.74884e-66
1.11338e-65
-4.24516e-66
1.01374e-65
-1.40774e-66
1.43028e-65
-5.7043e-66
1.60626e-65
-1.58251e-65
2.96122e-65
-2.77954e-65
4.19139e-65
-4.11297e-65
4.47635e-65
-3.59138e-65
5.11591e-65
-4.55868e-65
5.72038e-65
-4.40267e-65
6.40644e-65
-3.85326e-65
6.35095e-65
-3.31893e-65
6.08654e-65
-4.2735e-65
5.63386e-65
-3.76722e-65
5.21945e-65
-3.87758e-65
4.82254e-65
-3.65908e-65
4.55406e-65
-3.13065e-65
3.90851e-65
-2.72898e-65
3.56965e-65
-2.2627e-65
2.96911e-65
-2.46779e-65
2.77839e-65
-2.03469e-65
1.82462e-65
-1.93089e-65
1.66843e-65
-1.89749e-65
1.52392e-65
-1.16212e-65
8.62322e-66
-1.04197e-65
8.39407e-66
-1.09296e-65
3.67343e-66
4.68357e-66
-1.22962e-66
-4.32434e-66
-4.80553e-66
-8.69506e-66
-3.74791e-66
-5.43541e-66
-5.2537e-66
-6.90348e-66
-4.52096e-66
-2.13354e-66
-6.84679e-66
-2.92886e-66
-5.61281e-66
2.61571e-67
-8.35635e-66
1.17905e-66
-7.98022e-66
4.16371e-66
-7.8813e-66
2.80883e-66
-7.42037e-66
2.85109e-66
-6.68938e-66
3.47439e-66
-6.17791e-66
2.35773e-66
-5.09179e-66
1.07255e-66
-3.5377e-66
1.6742e-66
-2.69124e-66
8.76052e-67
-2.19156e-66
8.91326e-67
-1.39723e-66
6.76167e-67
-1.08401e-66
2.96678e-67
-7.96732e-67
1.82261e-67
-2.02737e-67
5.10652e-67
6.44142e-67
9.66264e-67
5.18916e-67
3.80492e-67
1.20076e-66
-9.68053e-69
1.29354e-66
1.31358e-67
1.1086e-66
8.64506e-68
1.02656e-66
-1.60727e-67
9.14061e-67
3.74543e-68
7.92272e-67
-2.53706e-68
-3.45774e-67
-2.11046e-66
-1.08413e-65
1.20043e-65
-5.57939e-63
4.82954e-64
-3.43665e-61
-1.56932e-61
2.45057e-60
1.98138e-59
-3.68944e-57
7.67797e-59
8.8449e-56
1.23229e-55
-5.8445e-54
-6.28223e-55
5.35488e-52
1.46193e-52
-1.00131e-50
-1.07554e-50
4.69986e-50
2.02906e-49
-6.81208e-51
2.26884e-49
1.89241e-49
4.55545e-49
-6.27918e-48
-5.23426e-48
2.65625e-45
5.62406e-47
-6.76143e-44
-4.27249e-44
-1.21372e-42
1.0451e-42
2.27164e-41
2.07867e-41
-2.89519e-41
-1.13428e-40
1.62052e-40
-1.37014e-39
-7.52775e-41
3.10722e-13
1.81634e-11
6.85119e-12
2.08606e-11
-1.38068e-14
-1.07756e-14
5.53221e-16
-1.51262e-16
1.3262e-15
3.58182e-12
8.98522e-13
6.90745e-12
1.78209e-15
1.11348e-15
-1.13744e-10
3.30396e-09
3.99749e-08
1.51077e-07
3.1468e-07
4.40435e-07
4.85573e-07
4.93968e-07
4.88938e-07
4.86485e-07
4.80342e-07
4.57616e-07
3.98401e-07
2.97114e-07
1.86215e-07
9.79962e-08
4.16915e-08
1.46427e-08
3.94061e-09
7.60917e-10
9.23562e-11
-1.8177e-12
-3.58403e-12
-5.73045e-13
2.14721e-14
8.49997e-15
-5.96222e-16
-4.19197e-17
8.62145e-18
-5.56719e-19
1.15424e-20
9.72765e-22
-1.09963e-22
7.09629e-24
-3.46379e-25
1.26466e-26
-2.74783e-28
-4.17431e-30
6.51158e-31
-2.16603e-32
9.9603e-35
1.0686e-35
-8.23561e-38
2.14334e-38
5.06442e-38
-3.52964e-39
2.62982e-11
9.25569e-12
2.77595e-10
8.03788e-11
6.08535e-11
9.64426e-11
-1.40692e-11
-6.70549e-12
3.61689e-11
1.02e-11
2.13104e-11
3.139e-11
9.75121e-12
2.59559e-11
-9.43611e-11
-1.61173e-11
-1.34759e-10
-1.05114e-10
-4.76145e-11
-4.17341e-11
3.40135e-11
8.12016e-12
1.42156e-10
9.36827e-11
1.06786e-10
1.40262e-10
-1.42408e-10
1.98862e-10
1.09736e-10
1.79561e-10
2.39692e-10
2.42283e-10
-4.10834e-11
3.82801e-10
3.5996e-10
6.08017e-10
-1.46886e-09
4.00028e-10
-1.44069e-09
-1.00374e-08
1.17371e-08
3.57103e-09
-7.10967e-09
8.47633e-09
-1.81905e-08
-2.9112e-08
8.77748e-09
-3.57443e-09
4.94247e-09
2.15308e-08
-1.44353e-08
-1.41068e-08
-6.25563e-09
-2.1506e-08
2.11743e-08
1.94384e-08
-6.75318e-09
1.30129e-08
-1.98659e-08
-2.76575e-08
1.26447e-08
-8.45449e-10
1.40614e-09
1.07505e-08
-6.32729e-09
-5.24801e-09
2.41733e-10
-1.22968e-09
-4.73591e-09
-5.00774e-09
-3.23181e-09
-5.42785e-09
-5.36274e-10
1.24718e-10
-3.10322e-09
0
1.08261e-11
5.30529e-11
4.77061e-11
9.25851e-11
-4.5002e-11
-7.84544e-11
6.74137e-10
2.02659e-10
-2.05825e-10
-2.5004e-11
-9.0787e-12
-5.14157e-12
-8.44848e-12
6.30644e-12
-1.09473e-11
6.82423e-13
-4.80098e-12
-1.21423e-12
1.25026e-11
-2.45694e-11
1.15123e-11
-7.15512e-12
4.72639e-12
0
0
0
-9.73304e-11
-2.06366e-11
-4.40453e-11
-1.50167e-09
-9.91045e-09
-1.28157e-09
-6.86935e-12
-2.8166e-12
-1.41698e-09
1.53726e-10
-1.70644e-11
1.25877e-12
-6.28659e-19
1.43971e-41
-3.01175e-41
2.04651e-17
8.72882e-16
4.11061e-38
1.3361e-17
-8.72524e-33
-4.22095e-29
-8.84415e-27
-9.75802e-26
-5.1492e-25
-1.24976e-23
6.3483e-23
-8.52937e-23
-4.66144e-23
-1.96265e-22
-9.40353e-23
-9.83438e-23
-1.25033e-22
-8.49417e-23
-1.00534e-22
-1.50383e-22
-7.38097e-22
4.57148e-21
-2.81977e-20
3.37061e-21
-8.50302e-20
-4.43129e-20
-3.20585e-20
9.57071e-20
1.99617e-19
-1.05856e-19
-4.03281e-20
-6.83353e-20
-2.94764e-19
-6.37825e-19
-4.71595e-19
2.35409e-19
7.2936e-19
7.44639e-19
-7.20213e-20
1.08671e-19
8.2278e-19
6.48237e-19
7.27761e-19
1.44815e-18
-2.75153e-19
-2.25275e-18
-3.65075e-18
2.65616e-18
5.40719e-18
9.13518e-18
1.63552e-17
1.56675e-17
1.10512e-17
3.44223e-18
-7.99881e-18
-2.60094e-17
-2.47844e-17
-3.27272e-17
-2.55162e-17
-1.537e-17
-8.31368e-18
-5.98217e-19
5.91077e-18
1.21039e-17
1.30232e-17
1.24195e-17
1.11836e-17
6.98075e-18
3.88842e-18
1.98628e-18
2.2107e-19
-1.04232e-18
-1.15879e-18
-1.51086e-18
-1.3644e-18
-9.98036e-19
-7.98184e-19
-4.34001e-19
-2.45153e-19
-1.5553e-19
-5.51972e-20
2.16375e-21
3.71862e-20
4.71441e-20
5.09467e-20
3.76226e-20
3.59865e-20
3.02332e-20
1.98292e-20
1.32003e-20
7.47562e-21
3.00697e-21
2.42944e-21
8.01552e-22
4.34433e-22
2.48288e-23
-1.18125e-22
3.02928e-21
8.26356e-20
6.79239e-26
8.41209e-27
2.22059e-29
1.92888e-34
-2.00385e-09
-3.95758e-11
2.94484e-10
1.44953e-08
8.45822e-08
2.33272e-07
3.8658e-07
4.70856e-07
4.91032e-07
4.91984e-07
4.87783e-07
4.84904e-07
4.73e-07
4.34561e-07
3.50635e-07
2.41099e-07
1.38038e-07
6.59514e-08
2.53825e-08
7.94121e-09
1.81895e-09
2.8624e-10
2.02942e-11
-5.21564e-12
-1.6826e-12
-1.10316e-13
2.39064e-14
8.74662e-16
-3.0846e-16
1.68433e-17
8.35464e-19
-1.67448e-19
1.33405e-20
-7.5437e-22
3.33805e-23
-1.45157e-24
6.20255e-26
-3.12492e-27
1.36628e-28
-3.93216e-30
3.22288e-32
2.36635e-33
-7.30178e-35
-5.68653e-37
0
-6.10378e-12
8.25151e-10
-3.05233e-09
-5.54279e-12
0
-1.6667e-11
-6.69813e-11
-5.12782e-11
2.6875e-11
-1.54962e-10
-6.39283e-11
-1.11071e-10
-8.66087e-10
-1.13872e-09
1.2276e-13
-8.47944e-13
2.91797e-12
-5.74896e-12
3.11639e-13
-9.93362e-13
-2.1395e-13
-1.32148e-11
-2.73938e-12
7.97617e-12
-1.12849e-11
6.12287e-12
6.61326e-12
0
3.81447e-23
2.67763e-31
-3.0467e-12
-4.33644e-12
3.35431e-12
3.09299e-12
2.8616e-12
5.06635e-10
-1.01718e-10
-2.31949e-10
-4.08981e-11
1.5277e-11
-2.68503e-11
-2.17971e-37
2.03275e-35
4.08184e-34
-4.53751e-32
1.11511e-30
3.0631e-30
-8.709e-28
3.28871e-26
-8.11862e-25
1.68944e-23
-2.97733e-22
3.66562e-21
-5.6703e-21
-7.62882e-19
1.54399e-17
-1.18444e-16
-6.58353e-16
1.58068e-14
5.92106e-15
-1.01294e-12
-5.21921e-12
2.35573e-12
1.60633e-10
1.21197e-09
5.9103e-09
2.06565e-08
5.6668e-08
1.26808e-07
2.33595e-07
3.54664e-07
4.58046e-07
5.12356e-07
5.29131e-07
5.33462e-07
5.37167e-07
5.38681e-07
5.26543e-07
4.59043e-07
3.01448e-07
1.23641e-07
-6.76415e-19
-2.95852e-20
1.35271e-22
2.73468e-23
4.41592e-23
8.74785e-23
-7.71071e-23
-1.07598e-21
-2.31774e-22
1.82085e-21
-3.1608e-21
4.51321e-23
-9.29379e-22
-9.94279e-21
-3.53967e-20
-4.46469e-20
-8.30424e-20
-7.7135e-20
-8.91444e-20
-1.27376e-19
-7.46649e-20
-1.01374e-19
-1.25959e-19
1.773e-19
3.70477e-19
3.79493e-19
7.88157e-19
2.22733e-18
2.54994e-18
3.51566e-18
3.45303e-18
1.99655e-18
1.59287e-18
-9.54455e-19
-7.34844e-18
-1.58728e-17
-2.43428e-17
-2.38666e-17
-2.70182e-17
-2.12435e-17
-1.6546e-17
3.24186e-18
2.00739e-17
4.78568e-17
5.37344e-17
6.11752e-17
4.40215e-17
1.55249e-17
1.45199e-17
-1.43914e-17
-1.95191e-17
-2.48214e-17
-2.138e-17
-1.29826e-17
-6.76728e-19
-4.91449e-18
-3.02844e-18
9.1828e-19
-3.46421e-18
-6.71091e-19
6.46083e-19
1.25618e-22
-8.90373e-23
-2.60279e-18
-3.13942e-18
-2.21705e-18
-1.26525e-18
-2.69705e-19
6.88526e-20
1.4053e-19
-1.79201e-19
5.5375e-19
1.05091e-18
4.25215e-19
-3.98543e-20
1.48144e-20
1.59067e-19
6.46842e-20
7.52499e-20
-1.53622e-20
2.78055e-21
5.4676e-22
4.16167e-22
2.30468e-22
2.02982e-22
1.75879e-22
1.56453e-22
1.6588e-22
8.99421e-13
-3.18646e-12
4.53151e-12
-1.3974e-11
9.8194e-12
2.7308e-12
-1.31687e-12
-1.36233e-09
-5.54253e-10
3.39236e-10
1.25669e-10
5.98008e-11
6.32444e-11
1.5866e-11
-7.81525e-37
-1.64536e-34
3.84887e-33
1.23241e-31
-8.96659e-30
2.56037e-28
-5.19763e-27
8.20199e-26
-1.94504e-24
4.81232e-23
-1.19058e-21
2.38811e-20
-3.51442e-19
2.78901e-18
1.79084e-17
-5.421e-16
2.79783e-15
3.47815e-14
-2.53908e-13
-2.69771e-12
-6.09553e-12
4.27967e-11
4.76203e-10
2.79586e-09
1.14467e-08
3.52506e-08
8.78275e-08
1.75794e-07
2.94367e-07
4.10609e-07
4.89812e-07
5.23432e-07
5.31158e-07
5.35024e-07
5.39319e-07
5.35864e-07
5.03779e-07
3.86879e-07
2.07076e-07
0
1.12599e-12
-4.01387e-20
4.7939e-21
2.63022e-22
-5.2946e-23
7.25687e-23
-5.40441e-22
-4.06144e-22
-2.37792e-21
-9.76555e-22
-1.73917e-21
1.02246e-21
-2.2702e-21
-1.32628e-20
-4.22974e-20
-4.38605e-20
-3.69875e-20
-8.57926e-20
-1.02502e-19
-1.18278e-19
-1.05711e-19
-1.48663e-20
2.53867e-20
-1.15135e-20
6.36399e-20
5.55059e-19
8.21321e-19
1.98866e-18
2.16029e-18
2.64586e-18
3.95466e-18
3.29816e-18
3.27015e-18
7.46722e-19
-4.10614e-18
-4.69495e-18
-1.71141e-17
-2.69239e-17
-2.42253e-17
-1.78568e-17
-9.86484e-18
-4.79343e-19
9.33878e-18
3.90844e-17
3.80598e-17
4.47821e-17
4.94115e-17
3.5411e-17
3.26875e-18
-6.18668e-19
-2.38097e-17
-3.02012e-17
-2.43705e-17
-2.15798e-17
-1.21557e-17
-5.20512e-18
2.72518e-18
1.00961e-18
2.20718e-19
3.32837e-18
-6.908e-20
1.3606e-19
-6.61715e-19
-1.3621e-18
-1.58339e-18
-1.77248e-18
-1.74009e-18
-1.39617e-18
-5.30021e-20
-1.27987e-19
-1.2121e-18
-4.57582e-19
-3.53428e-20
1.91295e-19
-1.28801e-19
-1.39586e-19
-1.21366e-19
3.18842e-20
1.15617e-21
-1.93033e-22
5.20165e-22
4.43556e-23
4.67997e-22
2.37591e-22
1.58252e-22
2.62764e-22
2.62089e-22
-7.25817e-23
3.82798e-23
-1.30633e-22
4.75421e-23
-1.41608e-23
1.52343e-25
-6.55583e-25
-1.75165e-25
6.72039e-28
3.57957e-25
2.56965e-08
9.47334e-10
-8.73497e-11
-1.23626e-10
6.90521e-09
6.28372e-08
2.25143e-11
7.60126e-12
6.83675e-13
-4.65663e-12
1.12005e-12
-8.73462e-12
1.91059e-12
0
0
0
0
0
0
0
0
0
0
0
0
0
0
0
0
0
0
0
0
0
0
0
0
0
0
0
0
0
0
0
0
0
0
0
0
0
0
0
0
0
0
0
0
0
0
0
0
0
0
0
0
0
0
-9.12754e-31
0
-5.81108e-30
0
-2.01452e-29
0
-4.80042e-29
0
-7.41061e-29
0
-8.73999e-29
0
-7.61972e-29
0
-4.59599e-29
0
-2.05579e-29
0
-7.31276e-30
0
-1.98452e-30
0
-4.16423e-31
0
-4.10297e-32
0
0
0
0
0
0
0
0
0
0
0
0
0
0
0
0
0
0
0
0
0
0
0
0
0
0
0
0
0
0
0
0
0
0
0
0
0
0
0
0
0
0
0
0
0
0
0
0
0
0
0
0
0
0
0
0
0
0
0
0
0
0
0
0
0
0
0
0
0
0
0
0
0
0
0
0
0
0
0
0
0
0
0
0
0
0
0
0
0
0
0
0
0
0
0
0
0
0
0
0
0
0
0
0
0
0
0
0
0
0
0
-1.6417e-16
1.18181e-15
2.93374e-08
-2.49003e-11
4.39416e-33
2.03442e-24
4.59778e-28
1.46022e-25
1.31336e-26
-1.46801e-25
-1.02761e-23
2.9444e-24
1.41558e-23
2.72441e-21
-2.44299e-17
6.72769e-23
-1.46398e-21
7.92886e-30
-1.19461e-28
-1.18326e-22
4.5143e-12
1.38514e-22
1.9592e-21
1.99755e-21
1.44077e-21
1.50995e-21
1.36651e-21
1.2202e-21
7.89174e-22
2.59646e-22
-5.53377e-22
3.57875e-21
-7.04587e-22
-2.61713e-21
1.92557e-19
-6.07433e-19
-7.72005e-19
-2.16372e-19
1.90807e-18
-9.62594e-19