/*--------------------------------*- C++ -*----------------------------------*\
  =========                 |
  \\      /  F ield         | OpenFOAM: The Open Source CFD Toolbox
   \\    /   O peration     | Website:  https://openfoam.org
    \\  /    A nd           | Version:  7
     \\/     M anipulation  |
\*---------------------------------------------------------------------------*/
FoamFile
{
    version     2.0;
    format      ascii;
    class       volScalarField;
    location    "0.55";
    object      T;
}
// * * * * * * * * * * * * * * * * * * * * * * * * * * * * * * * * * * * * * //

dimensions      [0 0 0 1 0 0 0];

internalField   nonuniform List<scalar> 
2500
(
0.5
0.0669146
-0.0353169
-0.0277115
-0.00789976
0.00112931
0.00220711
0.000963794
3.88563e-05
-0.000206218
-0.000130475
-2.6056e-05
1.76152e-05
1.74831e-05
6.08515e-06
-9.06082e-07
-2.20743e-06
-1.13534e-06
-1.08828e-07
2.42677e-07
1.80162e-07
4.27772e-08
-2.57662e-08
-2.89305e-08
-1.00774e-08
3.50687e-09
6.65701e-09
4.20457e-09
1.13091e-09
-5.2261e-10
-8.46959e-10
-5.70164e-10
-2.31383e-10
-2.9774e-11
4.00501e-11
4.14438e-11
2.37631e-11
9.01108e-12
1.54444e-12
-8.55451e-13
-1.01434e-12
-6.00914e-13
-2.48231e-13
-6.62581e-14
-7.9051e-16
1.21259e-14
9.08619e-15
4.42903e-15
1.607e-15
2.31658e-16
0.933085
0.5
0.14482
-0.0139075
-0.0411718
-0.0230289
-0.00507433
0.00215701
0.00250723
0.00101071
-9.45597e-08
-0.000255325
-0.000158214
-3.18212e-05
2.20247e-05
2.24029e-05
8.18654e-06
-9.33712e-07
-2.84323e-06
-1.54366e-06
-1.84979e-07
3.14965e-07
2.46069e-07
5.6305e-08
-4.55327e-08
-5.29208e-08
-2.3732e-08
6.72832e-10
9.4703e-09
8.02018e-09
3.77059e-09
6.66909e-10
-5.96754e-10
-7.08453e-10
-4.296e-10
-1.66238e-10
-2.51227e-11
2.11488e-11
2.3032e-11
1.33581e-11
5.30429e-12
1.21141e-12
-1.8701e-13
-3.89199e-13
-2.55337e-13
-1.14945e-13
-3.67935e-14
-5.83721e-15
2.35559e-15
2.65311e-15
1.03532
0.85518
0.5
0.182448
0.00830364
-0.0419281
-0.032441
-0.0120093
3.84402e-05
0.00307766
0.00201936
0.000522645
-0.000189729
-0.000261928
-0.00011892
-6.0797e-06
2.85921e-05
2.02291e-05
5.19865e-06
-2.25472e-06
-2.88586e-06
-1.18966e-06
8.75761e-08
4.18403e-07
2.47621e-07
2.67535e-08
-7.24131e-08
-6.96805e-08
-3.24719e-08
-3.16435e-09
8.40738e-09
8.36553e-09
4.60654e-09
1.44715e-09
-8.9628e-11
-4.70294e-10
-3.64623e-10
-1.78632e-10
-5.53038e-11
-2.17415e-12
1.07913e-11
8.85853e-12
4.52068e-12
1.61663e-12
3.1421e-13
-7.98328e-14
-1.1852e-13
-7.21276e-14
-3.13353e-14
-7.0669e-15
1.02771
1.01391
0.817552
0.5
0.206389
0.0268058
-0.0388677
-0.0384381
-0.0184166
-0.00302402
0.00284105
0.00282245
0.00118552
4.26336e-05
-0.000296283
-0.000211932
-6.02644e-05
1.87488e-05
2.93585e-05
1.41863e-05
1.05563e-06
-3.33592e-06
-2.45107e-06
-5.69985e-07
4.2056e-07
5.03203e-07
2.33045e-07
2.01934e-09
-8.44904e-08
-7.3947e-08
-3.54569e-08
-6.57815e-09
5.43587e-09
6.63119e-09
4.06089e-09
1.57805e-09
2.33978e-10
-2.09044e-10
-2.25753e-10
-1.30669e-10
-5.1546e-11
-1.13707e-11
2.23855e-12
4.06104e-12
2.61552e-12
1.16124e-12
3.62088e-13
5.02261e-14
-2.91904e-14
-2.88287e-14
1.0079
1.04117
0.991696
0.793611
0.5
0.223365
0.042154
-0.0343031
-0.0421139
-0.0239644
-0.00647533
0.00197761
0.00332497
0.00186773
0.000400578
-0.000245068
-0.000285938
-0.000129561
-8.18306e-06
3.12482e-05
2.34657e-05
6.70555e-06
-2.44865e-06
-3.69782e-06
-1.75281e-06
9.15459e-09
6.45029e-07
5.24427e-07
2.08666e-07
-6.23555e-09
-7.69593e-08
-6.49523e-08
-3.2034e-08
-7.95238e-09
2.47354e-09
4.27035e-09
2.88313e-09
1.27119e-09
3.19727e-10
-4.58017e-11
-1.09389e-10
-7.52704e-11
-3.46533e-11
-1.08071e-11
-1.16386e-12
1.25619e-12
1.1569e-12
6.17232e-13
2.41823e-13
4.23192e-14
0.998871
1.02303
1.04193
0.973194
0.776635
0.5
0.236308
0.0551561
-0.0291433
-0.0442026
-0.0286476
-0.0100134
0.000662994
0.00351515
0.00249275
0.000838195
-0.000109953
-0.000324646
-0.000201738
-4.91608e-05
2.41098e-05
3.11023e-05
1.42206e-05
2.11881e-07
-4.49503e-06
-3.41772e-06
-1.06764e-06
3.68271e-07
6.98321e-07
4.73416e-07
1.74058e-07
-3.60739e-09
-5.78105e-08
-4.85663e-08
-2.45998e-08
-7.22255e-09
5.49791e-10
2.30127e-09
1.72987e-09
8.3751e-10
2.64847e-10
2.07183e-11
-4.11652e-11
-3.59047e-11
-1.88703e-11
-7.0739e-12
-1.62866e-12
1.28227e-13
3.95672e-13
2.37641e-13
0.997793
1.00507
1.03244
1.03887
0.957846
0.763692
0.5
0.246668
0.0663827
-0.0238073
-0.0451887
-0.0325522
-0.0134733
-0.000959047
0.00341747
0.0030164
0.00131422
9.74041e-05
-0.000320246
-0.000266665
-9.96125e-05
7.93076e-06
3.60285e-05
2.34711e-05
5.45348e-06
-3.88756e-06
-5.02572e-06
-2.75974e-06
-5.53127e-07
4.86091e-07
6.10798e-07
3.73443e-07
1.32207e-07
1.2856e-09
-3.71162e-08
-3.1619e-08
-1.64111e-08
-5.36976e-09
-2.96084e-10
1.04753e-09
9.00442e-10
4.72468e-10
1.71517e-10
3.22876e-11
-1.05564e-11
-1.43987e-11
-8.71293e-12
-3.72941e-12
-1.141e-12
-4.02113e-14
0.999036
0.997843
1.01201
1.03844
1.0343
0.944844
0.753332
0.5
0.255249
0.0762287
-0.0184971
-0.0453946
-0.0357828
-0.0167684
-0.00277932
0.00306928
0.003416
0.00179454
0.000359998
-0.000272748
-0.00031887
-0.000156537
-1.77576e-05
3.67165e-05
3.3887e-05
1.40095e-05
-5.46496e-07
-5.43017e-06
-4.4535e-06
-1.98524e-06
-2.355e-07
4.39293e-07
4.55195e-07
2.60182e-07
9.04632e-08
4.03013e-09
-2.08497e-08
-1.82382e-08
-9.68011e-09
-3.41627e-09
-4.71215e-10
3.97792e-10
4.12884e-10
2.34208e-10
9.38535e-11
2.40714e-11
-2.76392e-13
-4.78745e-12
-3.50431e-12
-1.40643e-12
0.999961
0.997493
0.999962
1.01842
1.04211
1.02914
0.933617
0.744751
0.5
0.262537
0.0849759
-0.0133114
-0.0450396
-0.0384395
-0.0198577
-0.00471753
0.00251102
0.00368433
0.00225456
0.000660859
-0.00018651
-0.000356996
-0.000219673
-5.55434e-05
2.95332e-05
4.29475e-05
2.52561e-05
6.30348e-06
-3.38484e-06
-5.11628e-06
-3.35355e-06
-1.2823e-06
-7.13752e-08
3.23333e-07
2.97369e-07
1.61813e-07
5.57333e-08
4.28065e-09
-1.04085e-08
-9.44594e-09
-5.12026e-09
-1.91177e-09
-3.72401e-10
1.18769e-10
1.68095e-10
1.03687e-10
4.50152e-11
1.37239e-11
1.7618e-12
-1.48446e-12
1.00021
0.998989
0.996922
1.00302
1.02396
1.0442
1.02381
0.923771
0.737463
0.5
0.268848
0.0928297
-0.00829731
-0.0442778
-0.0406109
-0.0227249
-0.00671279
0.00178525
0.00382895
0.00268366
0.000990819
-6.2807e-05
-0.000378519
-0.000288383
-0.000108616
9.09929e-06
4.56972e-05
3.623e-05
1.57836e-05
1.54432e-06
-3.87614e-06
-3.90532e-06
-2.21029e-06
-7.46574e-07
-2.76226e-09
2.05505e-07
1.73376e-07
9.07207e-08
3.10697e-08
3.25641e-09
-4.66373e-09
-4.4383e-09
-2.4564e-09
-9.58985e-10
-2.26832e-10
2.12836e-11
6.08121e-11
4.14111e-11
1.94758e-11
4.96384e-12
1.00013
1
0.997981
0.997159
1.00648
1.02865
1.04519
1.0185
0.915024
0.731153
0.5
0.274394
0.0999443
-0.00347413
-0.0432165
-0.0423695
-0.0253657
-0.00871845
0.000933801
0.00386837
0.00308559
0.00135323
0.000106994
-0.000372825
-0.000355617
-0.000176018
-2.8415e-05
3.6578e-05
4.22132e-05
2.51161e-05
8.36804e-06
-6.4281e-07
-3.15812e-06
-2.55952e-06
-1.2962e-06
-3.93126e-07
1.67626e-08
1.15991e-07
9.13607e-08
4.62629e-08
1.5787e-08
2.03586e-09
-1.88506e-09
-1.907e-09
-1.07868e-09
-4.37215e-10
-1.17583e-10
-3.81564e-12
1.94859e-11
1.38029e-11
1.00003
1.00026
0.999477
0.997178
0.998022
1.01001
1.03255
1.04539
1.01331
0.907171
0.725606
0.499999
0.279329
0.106441
0.00115696
-0.0419325
-0.04378
-0.0277929
-0.0107119
-1.79182e-05
0.00381561
0.00346609
0.0017572
0.000339558
-0.000319694
-0.000404395
-0.000248252
-8.10118e-05
1.28481e-05
3.89471e-05
3.06934e-05
1.49208e-05
3.7068e-06
-1.21099e-06
-2.11988e-06
-1.48022e-06
-6.84041e-07
-1.8806e-07
1.62996e-08
5.90775e-08
4.39318e-08
2.16328e-08
7.36972e-09
1.1072e-09
-6.87174e-10
-7.53843e-10
-4.36856e-10
-1.83059e-10
-5.45499e-11
-8.50234e-13
0.999982
1.00016
1.00019
0.998814
0.996675
0.999337
1.01347
1.03578
1.04504
1.0083
0.900055
0.720669
0.499999
0.283769
0.112416
0.00559859
-0.0404925
-0.0449151
-0.0300496
-0.0127116
-0.00108318
0.00365336
0.00380945
0.00219863
0.000645964
-0.000197677
-0.000411623
-0.000307625
-0.000139069
-2.27803e-05
2.51132e-05
2.98706e-05
1.8871e-05
7.72668e-06
1.29457e-06
-1.03807e-06
-1.23321e-06
-7.67747e-07
-3.27871e-07
-8.22321e-08
1.06827e-08
2.74376e-08
1.94294e-08
9.34473e-09
3.18564e-09
5.40322e-10
-2.24224e-10
-2.75273e-10
-1.65392e-10
-5.75539e-11
0.999983
1.00003
1.00026
0.999957
0.998132
0.996485
1.00096
1.01677
1.03844
1.04428
1.00347
0.89356
0.716234
0.500001
0.287797
0.117938
0.00984853
-0.0389569
-0.0458508
-0.0322006
-0.0147726
-0.0023187
0.00332083
0.0040606
0.00264081
0.00101377
1.18783e-06
-0.000358644
-0.000334526
-0.000187995
-6.23279e-05
3.39453e-06
2.23282e-05
1.88438e-05
1.01082e-05
3.5129e-06
2.83724e-07
-6.76522e-07
-6.37471e-07
-3.61321e-07
-1.43969e-07
-3.31359e-08
5.70438e-09
1.17094e-08
7.95706e-09
3.7546e-09
1.28445e-09
2.41282e-10
-6.43604e-11
-9.11517e-11
0.999994
0.999978
1.00012
1.0003
0.999599
0.997507
0.996583
1.00278
1.01986
1.04061
1.04322
0.99885
0.887596
0.712207
0.49999
0.291464
0.123069
0.0139354
-0.0373319
-0.0466102
-0.0342774
-0.0169405
-0.00379199
0.00273222
0.00413115
0.00301141
0.00139816
0.000260018
-0.00024229
-0.00031628
-0.000214112
-9.5633e-05
-2.0561e-05
1.01939e-05
1.4982e-05
1.0249e-05
4.79478e-06
1.40476e-06
-3.20742e-08
-3.71315e-07
-2.97405e-07
-1.5579e-07
-5.84102e-08
-1.24295e-08
2.62856e-09
4.62073e-09
3.03608e-09
1.41161e-09
4.90255e-10
5.45381e-11
1
0.999978
1.00001
1.00021
1.00024
0.999162
0.996984
0.996931
1.00472
1.02272
1.04237
1.04194
0.994422
0.882071
0.708497
0.499948
0.294842
0.127932
0.0179958
-0.0354888
-0.0470828
-0.036199
-0.0191788
-0.00551943
0.00182505
0.00393329
0.00322261
0.0017306
0.000537464
-7.93227e-05
-0.000253311
-0.000210352
-0.0001145
-4.05675e-05
-3.02368e-06
8.71407e-06
8.39923e-06
4.9226e-06
2.03705e-06
4.92639e-07
-7.91408e-08
-1.78866e-07
-1.26696e-07
-6.20814e-08
-2.20847e-08
-4.39121e-09
1.07291e-09
1.69466e-09
1.09343e-09
4.11549e-10
1
0.999992
0.999971
1.00006
1.00029
1.00011
0.998686
0.996584
0.997488
1.00671
1.02537
1.04379
1.04051
0.990165
0.876903
0.705038
0.4999
0.298066
0.132753
0.0223066
-0.0331342
-0.0469878
-0.0377263
-0.0213162
-0.00741118
0.000612174
0.00342434
0.00320539
0.001942
0.000780605
9.85335e-05
-0.000159214
-0.000178716
-0.000115639
-5.22893e-05
-1.39566e-05
1.99189e-06
5.39837e-06
4.10018e-06
2.12117e-06
7.82589e-07
1.49907e-07
-5.51701e-08
-7.73802e-08
-4.97701e-08
-2.30539e-08
-7.84792e-09
-1.4797e-09
3.9552e-10
5.66964e-10
1
1
0.99998
0.999981
1.00013
1.00033
0.999902
0.998203
0.996315
0.99822
1.00873
1.02779
1.0449
1.03895
0.98608
0.872059
0.701813
0.499888
0.301271
0.137764
0.0271851
-0.0298943
-0.045935
-0.0384971
-0.0230567
-0.00926186
-0.000795311
0.00263623
0.0029393
0.00198801
0.00094345
0.000256008
-5.51875e-05
-0.000128659
-0.000101145
-5.44527e-05
-2.05385e-05
-3.51737e-06
2.23286e-06
2.7692e-06
1.78432e-06
8.30502e-07
2.74381e-07
3.84575e-08
-2.83143e-08
-3.05403e-08
-1.81873e-08
-8.03819e-09
-2.6637e-09
-2.3368e-10
1
1
0.999995
0.99997
1.00001
1.0002
1.00032
0.999635
0.997743
0.996185
0.99909
1.0107
1.02998
1.04577
1.03738
0.982246
0.867519
0.698684
0.499724
0.304315
0.142953
0.0327757
-0.025493
-0.0435708
-0.0381396
-0.0240612
-0.0107998
-0.00221023
0.00167331
0.0024622
0.00186386
0.00100168
0.000366048
3.77739e-05
-7.28438e-05
-7.68067e-05
-4.86066e-05
-2.23774e-05
-6.91392e-06
-3.38257e-07
1.3874e-06
1.23765e-06
7.03881e-07
2.98836e-07
8.86105e-08
7.62515e-09
-1.22452e-08
-1.11263e-08
-6.27905e-09
-2.13397e-09
1
1
1
0.999985
0.999969
1.00005
1.00027
1.00026
0.999332
0.997339
0.996183
1.00002
1.01257
1.03197
1.0466
1.03603
0.978704
0.862958
0.694982
0.498584
0.30646
0.147823
0.0388592
-0.0199224
-0.0397375
-0.0364148
-0.0240628
-0.0117726
-0.00342552
0.000680641
0.00185702
0.001603
0.000957604
0.000416751
0.00010517
-2.26476e-05
-4.94784e-05
-3.7921e-05
-2.04122e-05
-8.12044e-06
-1.9538e-06
2.75273e-07
6.7794e-07
4.95613e-07
2.55122e-07
9.98793e-08
2.66108e-08
7.4758e-10
-4.72759e-09
-3.46553e-09
1
1
1
0.999998
0.999977
0.999979
1.0001
1.00031
1.00017
0.999034
0.996997
0.996224
1.0009
1.01435
1.03406
1.04779
1.03506
0.974987
0.857184
0.689035
0.494736
0.306261
0.151361
0.0448188
-0.0135097
-0.0345668
-0.0333185
-0.0229626
-0.0120272
-0.00427666
-0.0002002
0.00122397
0.00126271
0.000835082
0.000411703
0.000141603
1.47443e-05
-2.48232e-05
-2.57888e-05
-1.62182e-05
-7.63267e-06
-2.62164e-06
-4.3275e-07
2.31617e-07
2.84689e-07
1.81218e-07
8.5952e-08
3.13153e-08
7.56766e-09
-1.02263e-09
1
1
1
1
0.999993
0.999973
0.999995
1.00014
1.00033
1.00008
0.998757
0.996632
0.99616
1.00171
1.01639
1.03682
1.04968
1.03394
0.969449
0.847682
0.678061
0.485711
0.301853
0.152289
0.0497987
-0.00684701
-0.0284677
-0.0291002
-0.0208636
-0.0115515
-0.00468344
-0.000868173
0.000651875
0.000904865
0.000668699
0.000365279
0.00014977
3.70429e-05
-6.147e-06
-1.48178e-05
-1.13468e-05
-6.17128e-06
-2.57762e-06
-7.55272e-07
-5.46787e-08
1.18009e-07
1.06933e-07
6.13542e-08
2.74019e-08
6.95189e-09
1
1
1
1
1
0.99999
0.999969
1
1.00019
1.00039
1.00002
0.998406
0.99606
0.995956
1.00285
1.01942
1.04077
1.05177
1.0307
0.958854
0.830731
0.658692
0.46897
0.29154
0.149492
0.0529739
-0.000624233
-0.0220202
-0.024196
-0.0180361
-0.0104648
-0.00465865
-0.00128033
0.000199089
0.000579895
0.000492544
0.000296033
0.000137308
4.58443e-05
5.64675e-06
-6.42841e-06
-6.91958e-06
-4.3985e-06
-2.12864e-06
-7.95245e-07
-1.93421e-07
1.07701e-08
4.87067e-08
3.7056e-08
1.65601e-08
1
1
1
1
1
1
0.999983
0.999953
1.00002
1.00028
1.00049
0.999876
0.997762
0.995199
0.996012
1.0052
1.02418
1.04552
1.05187
1.02154
0.938712
0.802273
0.628007
0.442796
0.27442
0.142401
0.0538021
0.00455581
-0.0158265
-0.0191139
-0.0148371
-0.00897151
-0.00428772
-0.00144858
-0.000112007
0.000318483
0.000332483
0.000221003
0.000113302
4.48588e-05
1.13863e-05
-9.55741e-07
-3.51354e-06
-2.76963e-06
-1.54093e-06
-6.75259e-07
-2.26274e-07
-4.32815e-08
1.138e-08
1.72045e-08
1
1
1
0.999999
1
1.00001
1
0.999958
0.999932
1.00009
1.00046
1.00056
0.99941
0.996689
0.994434
0.997305
1.0097
1.03044
1.04881
1.04577
1.00135
0.904441
0.759235
0.58461
0.406972
0.250743
0.131191
0.0521595
0.00831129
-0.010378
-0.0143157
-0.011621
-0.00730053
-0.00369346
-0.00142254
-0.000289339
0.00013105
0.000203168
0.000152409
8.56701e-05
3.82364e-05
1.27472e-05
1.98578e-06
-1.24966e-06
-1.50904e-06
-9.90215e-07
-4.96615e-07
-1.99322e-07
-6.03092e-08
-2.4164e-09
1
1
1
0.999999
0.999999
1.00001
1.00001
0.999981
0.999921
0.99996
1.00026
1.00065
1.00033
0.998432
0.995529
0.994792
1.00094
1.01629
1.03596
1.04615
1.02787
0.965111
0.852906
0.700708
0.52926
0.362971
0.221877
0.116708
0.0483317
0.0105306
-0.00597647
-0.0101362
-0.00867079
-0.00565402
-0.00300103
-0.00126802
-0.000359671
1.25302e-05
0.000108963
9.68204e-05
5.98753e-05
2.94582e-05
1.15142e-05
3.10086e-06
3.2944e-08
-6.61299e-07
-5.60662e-07
-3.23889e-07
-1.50384e-07
-4.26627e-08
1
1
1
0.999999
0.999998
1
1.00001
0.999997
0.999942
0.999921
1.0001
1.00048
1.00058
0.999557
0.997227
0.995309
0.997496
1.00707
1.02282
1.03607
1.03151
0.992717
0.909576
0.783644
0.628454
0.464791
0.313602
0.18995
0.100232
0.0428961
0.0113427
-0.00271896
-0.00675201
-0.00616401
-0.00417676
-0.00231306
-0.00104875
-0.000356679
-5.09075e-05
4.6999e-05
5.60464e-05
3.87866e-05
2.08717e-05
9.14131e-06
3.11102e-06
6.09289e-07
-1.66309e-07
-2.69156e-07
-1.89299e-07
-8.37197e-08
1
1
1
0.999999
0.999999
1
1.00001
1
0.999964
0.999932
1.00002
1.00029
1.00048
0.999996
0.99849
0.996791
0.997317
1.00285
1.01366
1.02459
1.02446
0.999054
0.93687
0.834553
0.699245
0.546564
0.395433
0.262325
0.157335
0.0831589
0.0365564
0.0110371
-0.000533664
-0.00419418
-0.00417261
-0.00294805
-0.0016983
-0.000815162
-0.000311972
-7.5789e-05
1.06571e-05
2.87654e-05
2.32178e-05
1.37104e-05
6.59573e-06
2.5905e-06
7.52437e-07
7.54566e-08
-9.67087e-08
-8.87661e-08
1
1
1
0.999999
0.999999
1
1.00001
1
0.999976
0.999956
1.00001
1.00018
1.00029
1.00001
0.999104
0.998077
0.998427
1.00196
1.00897
1.01602
1.01507
0.994915
0.945049
0.860193
0.743188
0.604791
0.46048
0.325835
0.212509
0.12618
0.0667311
0.02999
0.00997159
0.000758956
-0.00238775
-0.00268475
-0.00199024
-0.00119158
-0.000600355
-0.00025017
-7.71947e-05
-7.60604e-06
1.21502e-05
1.26989e-05
8.36663e-06
4.39311e-06
1.91799e-06
6.75651e-07
1.6154e-07
-2.31788e-08
1
1
1
0.999999
0.999999
1
1.00001
0.999999
0.999978
0.999973
1.00003
1.00014
1.00016
0.999866
0.999249
0.998813
0.999605
1.00261
1.00748
1.01123
1.00756
0.987797
0.94341
0.869256
0.766113
0.641244
0.506652
0.375799
0.260156
0.166867
0.0980946
0.0518704
0.0237434
0.00849261
0.00138299
-0.00119885
-0.00163553
-0.00128549
-0.000800766
-0.000421315
-0.000187539
-6.67339e-05
-1.44972e-05
3.07584e-06
6.17009e-06
4.72379e-06
2.71965e-06
1.29839e-06
5.22863e-07
1.18164e-07
1
1
1
0.999999
0.999999
1
1.00001
0.999996
0.999977
0.99998
1.00005
1.00015
1.0001
0.999728
0.999176
0.99908
1.00038
1.00357
1.00765
1.00935
1.00304
0.981624
0.938459
0.869514
0.775176
0.660804
0.535747
0.411136
0.297261
0.201466
0.127158
0.0740288
0.0391194
0.0181839
0.00688445
0.00155742
-0.000475743
-0.000936215
-0.000793742
-0.000516175
-0.000282852
-0.000132929
-5.21494e-05
-1.51168e-05
-1.18253e-06
2.46643e-06
2.43523e-06
1.56533e-06
8.21051e-07
2.9203e-07
1
1
1
0.999999
0.999999
1
1.00001
0.999995
0.999974
0.999981
1.00006
1.00016
1.00008
0.999647
0.999059
0.99909
1.00073
1.00429
1.00832
1.0091
1.00099
0.977647
0.933712
0.866424
0.776673
0.669181
0.551714
0.433511
0.323399
0.228144
0.151512
0.0941694
0.0543148
0.0286728
0.013501
0.00534761
0.00146604
-7.72203e-05
-0.000496114
-0.000467443
-0.000319353
-0.000182165
-8.97351e-05
-3.78722e-05
-1.28793e-05
-2.67487e-06
5.8163e-07
1.10874e-06
8.39951e-07
4.11528e-07
1
1
1
0.999999
0.999999
1
1.00001
0.999995
0.999973
0.99998
1.00007
1.00017
1.00009
0.999616
0.998974
0.999013
1.00082
1.00468
1.00893
1.00949
1.00045
0.97566
0.930446
0.863018
0.775031
0.67132
0.558974
0.446018
0.34001
0.246859
0.170113
0.110813
0.0678767
0.0388031
0.0204579
0.00973793
0.00400016
0.00124538
0.000112418
-0.000235704
-0.000261296
-0.000189566
-0.000112742
-5.79728e-05
-2.59421e-05
-9.80007e-06
-2.77335e-06
-2.36839e-07
4.10367e-07
3.77559e-07
1
1
1
0.999999
0.999999
1
1.00001
0.999996
0.999972
0.999978
1.00007
1.00018
1.0001
0.999614
0.998932
0.998938
1.00079
1.00482
1.00931
1.00994
1.00058
0.974965
0.928678
0.860505
0.772763
0.670693
0.561288
0.451972
0.349435
0.258785
0.183106
0.123409
0.078936
0.04769
0.0270335
0.0142313
0.00683602
0.00289278
0.000985721
0.000178987
-9.22468e-05
-0.000137375
-0.000107776
-6.71102e-05
-3.59595e-05
-1.69112e-05
-6.89854e-06
-2.30118e-06
-4.94051e-07
1.24934e-07
1
1
1
0.999999
0.999999
1
1.00001
0.999996
0.999972
0.999977
1.00006
1.00018
1.00011
0.99962
0.998919
0.998893
1.00074
1.00484
1.00947
1.01026
1.00088
0.974908
0.927951
0.859048
0.77095
0.66931
0.561294
0.454147
0.354086
0.265636
0.191402
0.13217
0.087233
0.0548465
0.032709
0.0183932
0.00966639
0.00467872
0.00202883
0.000739288
0.000180765
-2.02121e-05
-6.6708e-05
-5.84691e-05
-3.84139e-05
-2.14594e-05
-1.05511e-05
-4.57164e-06
-1.70908e-06
-3.38223e-07
1
1
1
0.999999
0.999999
1
1.00001
0.999996
0.999972
0.999977
1.00006
1.00018
1.00011
0.999627
0.99892
0.998874
1.0007
1.00481
1.00952
1.01042
1.00112
0.975064
0.927781
0.858378
0.769828
0.668083
0.560541
0.454487
0.355951
0.269116
0.196216
0.137771
0.0929797
0.0601708
0.0372253
0.0219306
0.0122384
0.00641982
0.00312699
0.00138363
0.000530774
0.00015402
1.11226e-05
-2.87397e-05
-3.00525e-05
-2.11126e-05
-1.23329e-05
-6.32174e-06
-2.9052e-06
-9.16983e-07
1
1
1
0.999999
0.999999
1
1.00001
0.999996
0.999972
0.999976
1.00006
1.00018
1.00011
0.999631
0.998924
0.998869
1.00068
1.00478
1.00951
1.01049
1.00126
0.975229
0.927834
0.858161
0.769267
0.667273
0.559765
0.454145
0.356418
0.270609
0.19872
0.141049
0.0966567
0.0638433
0.0405587
0.024714
0.0143931
0.00797387
0.00417431
0.00204379
0.000919624
0.000367285
0.000119207
2.11171e-05
-9.78549e-06
-1.44367e-05
-1.11046e-05
-6.82222e-06
-3.67688e-06
-1.44916e-06
1
1
1
0.999999
0.999999
1
1.00001
0.999996
0.999972
0.999977
1.00006
1.00018
1.00011
0.999633
0.998928
0.998871
1.00067
1.00476
1.00949
1.0105
1.00133
0.97534
0.927932
0.858147
0.76905
0.666837
0.559214
0.453691
0.356318
0.271077
0.19985
0.142787
0.0988242
0.0661942
0.0428486
0.0267528
0.0160704
0.00925803
0.00509345
0.00266057
0.00130811
0.000596855
0.00024616
8.64432e-05
2.11481e-05
-1.25431e-06
-6.30165e-06
-5.5508e-06
-3.65952e-06
-1.75012e-06
1
1
1
0.999999
0.999999
1
1.00001
0.999996
0.999972
0.999977
1.00006
1.00018
1.00011
0.999633
0.99893
0.998873
1.00067
1.00475
1.00948
1.01049
1.00134
0.975396
0.928009
0.858195
0.769002
0.666648
0.558898
0.453338
0.356077
0.271102
0.200256
0.143604
0.0999923
0.0675882
0.0443145
0.0281477
0.0172902
0.0102476
0.00584318
0.00319331
0.00166411
0.00082089
0.000378914
0.000160382
5.96921e-05
1.73985e-05
1.94714e-06
-2.3267e-06
-2.62996e-06
-1.66509e-06
1
1
1
0.999999
0.999999
1
1.00001
0.999996
0.999972
0.999977
1.00006
1.00018
1.00011
0.999633
0.998931
0.998875
1.00067
1.00475
1.00947
1.01048
1.00134
0.975418
0.928053
0.858243
0.769016
0.666589
0.558748
0.453123
0.355865
0.27099
0.200333
0.143925
0.100558
0.0683498
0.0451882
0.0290406
0.0181215
0.0109623
0.00641538
0.00362256
0.00196703
0.00102251
0.000505662
0.00023566
0.000101879
3.96372e-05
1.29079e-05
2.66567e-06
-5.58006e-07
-1.10998e-06
1
1
1
0.999999
0.999999
1
1.00001
0.999996
0.999972
0.999977
1.00006
1.00018
1.00011
0.999633
0.998931
0.998876
1.00067
1.00475
1.00947
1.01047
1.00134
0.975423
0.928073
0.858274
0.769042
0.666584
0.558692
0.453013
0.355726
0.270872
0.200293
0.144012
0.100796
0.0687285
0.045671
0.0295749
0.0186533
0.0114475
0.00682588
0.00394718
0.00220827
0.00119163
0.000617797
0.000306078
0.00014378
6.32453e-05
2.5474e-05
8.95389e-06
2.40091e-06
-8.86114e-08
1
1
1
0.999999
0.999999
1
1.00001
0.999996
0.999972
0.999977
1.00006
1.00018
1.00011
0.999633
0.998931
0.998876
1.00067
1.00475
1.00947
1.01047
1.00134
0.975421
0.92808
0.85829
0.769062
0.666596
0.55868
0.452967
0.355651
0.270788
0.200233
0.144009
0.100874
0.0688956
0.0459162
0.0298731
0.0189728
0.0117577
0.00710354
0.00417858
0.00238913
0.00132485
0.000710608
0.000367383
0.000182233
8.61619e-05
3.8446e-05
1.59142e-05
5.95978e-06
1.31558e-06
1
1
1
0.999999
0.999999
1
1.00001
0.999996
0.999972
0.999977
1.00006
1.00018
1.00011
0.999633
0.998931
0.998876
1.00067
1.00475
1.00947
1.01047
1.00133
0.975419
0.928081
0.858297
0.769073
0.666607
0.558682
0.452952
0.355616
0.270739
0.200185
0.143981
0.100885
0.068957
0.0460286
0.0300273
0.0191525
0.0119446
0.00728094
0.00433453
0.00251727
0.0014239
0.00078295
0.000417482
0.000215206
0.000106818
5.07719e-05
2.29165e-05
9.77633e-06
2.96647e-06
1
1
1
0.999999
0.999999
1
1.00001
0.999996
0.999972
0.999977
1.00006
1.00018
1.00011
0.999633
0.99893
0.998876
1.00067
1.00475
1.00947
1.01047
1.00133
0.975418
0.92808
0.858298
0.769079
0.666614
0.558688
0.452951
0.355603
0.270715
0.200155
0.143956
0.100875
0.068972
0.0460733
0.0301002
0.0192469
0.0120505
0.00738806
0.00443408
0.00260332
0.00149366
0.00083631
0.000456146
0.000241829
0.000124278
6.16959e-05
2.94386e-05
1.3526e-05
4.70955e-06
1
1
1
0.999999
0.999999
1
1.00001
0.999996
0.999972
0.999977
1.00006
1.00018
1.00011
0.999633
0.99893
0.998876
1.00067
1.00475
1.00947
1.01047
1.00133
0.975417
0.928079
0.858298
0.76908
0.666618
0.558692
0.452953
0.3556
0.270705
0.200139
0.143938
0.100863
0.0689703
0.0460871
0.0301309
0.0192926
0.0121068
0.00744915
0.00449431
0.00265819
0.00154035
0.000873687
0.000484449
0.000262181
0.000138216
7.08059e-05
3.51275e-05
1.69542e-05
6.40301e-06
1
1
1
0.999999
0.999999
1
1.00001
0.999996
0.999972
0.999977
1.00006
1.00018
1.00011
0.999633
0.99893
0.998876
1.00067
1.00475
1.00947
1.01047
1.00133
0.975417
0.928078
0.858298
0.769081
0.66662
0.558695
0.452955
0.355601
0.270702
0.200132
0.143929
0.100853
0.0689648
0.0460887
0.0301417
0.0193127
0.0121346
0.00748197
0.00452884
0.00269144
0.00157008
0.000898613
0.000504167
0.000276972
0.000148774
7.79991e-05
3.98112e-05
1.99002e-05
7.93867e-06
1
1
1
0.999999
0.999999
1
1.00001
0.999996
0.999972
0.999977
1.00006
1.00018
1.00011
0.999633
0.99893
0.998876
1.00067
1.00475
1.00947
1.01047
1.00133
0.975416
0.928078
0.858298
0.769081
0.66662
0.558696
0.452956
0.355602
0.270701
0.200129
0.143924
0.100848
0.06896
0.0460868
0.0301442
0.0193204
0.0121473
0.00749851
0.00454757
0.0027106
0.00158813
0.000914468
0.000517273
0.000287222
0.000156394
8.34013e-05
4.34709e-05
2.2296e-05
9.25049e-06
1
1
1
0.999999
0.999999
1
1.00001
0.999996
0.999972
0.999977
1.00006
1.00018
1.00011
0.999633
0.99893
0.998876
1.00067
1.00475
1.00947
1.01047
1.00133
0.975416
0.928078
0.858297
0.769081
0.66662
0.558696
0.452957
0.355602
0.270702
0.200129
0.143922
0.100845
0.0689569
0.0460845
0.0301438
0.0193227
0.0121525
0.00750624
0.00455715
0.00272107
0.00159856
0.000924104
0.000525603
0.000294018
0.000161654
8.72784e-05
4.62001e-05
2.41524e-05
1.0315e-05
1
1
1
0.999999
0.999999
1
1.00001
0.999996
0.999972
0.999977
1.00006
1.00018
1.00011
0.999633
0.99893
0.998876
1.00067
1.00475
1.00947
1.01047
1.00133
0.975416
0.928078
0.858297
0.76908
0.66662
0.558696
0.452958
0.355603
0.270702
0.200129
0.143921
0.100844
0.0689552
0.0460829
0.0301429
0.019323
0.0121543
0.00750953
0.0045617
0.00272646
0.00160426
0.000929641
0.000530613
0.000298278
0.000165081
8.99011e-05
4.81139e-05
2.55009e-05
1.11213e-05
1
1
1
0.999999
0.999999
1
1.00001
0.999996
0.999972
0.999977
1.00006
1.00018
1.00011
0.999633
0.99893
0.998876
1.00067
1.00475
1.00947
1.01047
1.00133
0.975416
0.928078
0.858297
0.76908
0.66662
0.558696
0.452958
0.355603
0.270702
0.200129
0.143921
0.100843
0.0689543
0.0460818
0.0301419
0.0193226
0.0121547
0.00751092
0.00456402
0.00272951
0.00160776
0.000933263
0.000534078
0.000301378
0.000167696
9.19943e-05
4.97099e-05
2.6675e-05
1.18606e-05
)
;

boundaryField
{
    upperWall
    {
        type            zeroGradient;
    }
    outlet
    {
        type            zeroGradient;
    }
    inlet
    {
        type            fixedValue;
        value           uniform 1;
    }
    lowerWall
    {
        type            fixedValue;
        value           uniform 0;
    }
    frontAndBack
    {
        type            empty;
    }
}


// ************************************************************************* //
