/*--------------------------------*- C++ -*----------------------------------*\
  =========                 |
  \\      /  F ield         | OpenFOAM: The Open Source CFD Toolbox
   \\    /   O peration     | Website:  https://openfoam.org
    \\  /    A nd           | Version:  7
     \\/     M anipulation  |
\*---------------------------------------------------------------------------*/
FoamFile
{
    version     2.0;
    format      ascii;
    class       volScalarField;
    location    "0.45";
    object      T;
}
// * * * * * * * * * * * * * * * * * * * * * * * * * * * * * * * * * * * * * //

dimensions      [0 0 0 1 0 0 0];

internalField   nonuniform List<scalar> 
10000
(
0.5
0.0669146
-0.0353169
-0.0277115
-0.00789976
0.00112931
0.00220711
0.000963794
3.88563e-05
-0.000206219
-0.000130475
-2.60559e-05
1.76156e-05
1.74837e-05
6.08561e-06
-9.06078e-07
-2.20761e-06
-1.13472e-06
-1.06187e-07
2.47843e-07
1.86997e-07
4.93083e-08
-2.15851e-08
-2.80943e-08
-1.20897e-08
1.82627e-10
3.66955e-09
2.54511e-09
9.02615e-10
1.63576e-10
7.84532e-11
1.14336e-10
4.54544e-11
-8.64494e-11
-1.78964e-10
-1.88204e-10
-1.35012e-10
-6.36298e-11
-7.35797e-12
2.2117e-11
2.89985e-11
2.33573e-11
1.40552e-11
6.14182e-12
1.24679e-12
-9.63976e-13
-1.48499e-12
-1.2288e-12
-7.74463e-13
-3.90063e-13
-1.46554e-13
-2.39249e-14
2.21272e-14
2.97959e-14
2.31545e-14
1.41607e-14
7.2117e-15
2.99878e-15
8.77561e-16
9.97618e-18
-2.35016e-16
-2.30314e-16
-1.58157e-16
-8.99757e-17
-4.40375e-17
-1.83154e-17
-5.93654e-18
-9.01761e-19
6.62777e-19
8.50292e-19
6.30502e-19
3.77815e-19
1.96676e-19
9.04222e-20
3.61166e-20
1.16335e-20
2.10584e-21
-8.17587e-22
-1.24334e-21
-9.45349e-22
-5.73675e-22
-3.04129e-22
-1.44752e-22
-6.19243e-23
-2.32373e-23
-7.03856e-24
-1.14181e-24
5.38567e-25
7.35133e-25
5.39318e-25
3.20841e-25
1.68632e-25
8.05717e-26
3.52253e-26
1.3952e-26
4.82917e-27
1.30194e-27
1.26266e-28
-1.59686e-28
-1.95152e-28
0.933085
0.5
0.14482
-0.0139075
-0.0411718
-0.0230289
-0.00507433
0.00215701
0.00250723
0.00101071
-9.38682e-08
-0.000255324
-0.000158213
-3.18214e-05
2.20241e-05
2.24005e-05
8.17946e-06
-9.48199e-07
-2.86448e-06
-1.56604e-06
-2.00006e-07
3.13859e-07
2.59372e-07
7.80486e-08
-2.42558e-08
-3.91755e-08
-1.97909e-08
-2.87229e-09
2.91681e-09
2.39604e-09
9.8565e-10
6.24257e-10
9.17394e-10
1.08582e-09
8.53799e-10
3.9162e-10
-3.00029e-11
-2.61285e-10
-3.01694e-10
-2.29149e-10
-1.26023e-10
-4.25783e-11
5.39819e-12
2.32337e-11
2.32642e-11
1.63236e-11
8.89476e-12
3.58004e-12
6.57661e-13
-5.32754e-13
-7.68326e-13
-6.13857e-13
-3.79643e-13
-1.91769e-13
-7.60465e-14
-1.80549e-14
4.65084e-15
9.86933e-15
8.35645e-15
5.36752e-15
2.88252e-15
1.30847e-15
4.751e-16
1.03386e-16
-2.7781e-17
-5.37419e-17
-4.37807e-17
-2.75437e-17
-1.47754e-17
-6.90903e-18
-2.76395e-18
-8.62532e-19
-1.21416e-19
9.8252e-20
1.20425e-19
8.75342e-20
5.18318e-20
2.68442e-20
1.23873e-20
5.04284e-21
1.72012e-21
4.00785e-22
-3.07733e-23
-1.19247e-22
-1.00808e-22
-6.4061e-23
-3.50818e-23
-1.72451e-23
-7.68937e-24
-3.08057e-24
-1.06573e-24
-2.78155e-25
-1.61902e-26
4.57287e-26
4.40552e-26
2.9231e-26
1.64586e-26
8.32831e-27
3.86973e-27
1.44684e-27
1.03532
0.85518
0.5
0.182448
0.00830364
-0.0419281
-0.032441
-0.0120093
3.84408e-05
0.00307766
0.00201936
0.000522644
-0.000189734
-0.000261936
-0.000118925
-6.07701e-06
2.86045e-05
2.02424e-05
5.19555e-06
-2.29042e-06
-2.95624e-06
-1.27782e-06
9.6992e-09
3.74599e-07
2.45124e-07
5.47712e-08
-3.41151e-08
-3.91952e-08
-1.83743e-08
-4.05873e-09
-5.21672e-10
-1.35668e-09
-1.60312e-09
-3.73951e-10
1.16928e-09
1.9745e-09
1.84652e-09
1.17732e-09
4.49234e-10
-5.23223e-11
-2.71548e-10
-2.86682e-10
-2.06407e-10
-1.11314e-10
-4.02775e-11
-1.03107e-12
1.38307e-11
1.5038e-11
1.09471e-11
6.25543e-12
2.80213e-12
8.261e-13
-5.76729e-14
-3.18507e-13
-3.02601e-13
-2.05849e-13
-1.14267e-13
-5.24607e-14
-1.85067e-14
-3.13472e-15
2.15963e-15
2.96688e-15
2.27282e-15
1.3814e-15
7.14016e-16
3.15134e-16
1.12328e-16
2.46021e-17
-5.64785e-18
-1.15798e-17
-9.43812e-18
-5.93114e-18
-3.19063e-18
-1.50833e-18
-6.20361e-19
-2.08654e-19
-4.34586e-20
9.75567e-21
1.92324e-20
1.53083e-20
9.48779e-21
5.09292e-21
2.44284e-21
1.04924e-21
3.93549e-22
1.18007e-22
1.78195e-23
-1.03716e-23
-1.32759e-23
-9.6004e-24
-5.66357e-24
-2.95325e-24
-1.3974e-24
-6.02561e-25
-2.33456e-25
-7.74996e-26
-1.86568e-26
2.49359e-29
3.91873e-27
3.87399e-27
1.02771
1.01391
0.817552
0.5
0.206389
0.0268058
-0.0388677
-0.0384381
-0.0184166
-0.00302402
0.00284105
0.00282245
0.00118552
4.26332e-05
-0.000296282
-0.000211922
-6.02234e-05
1.88443e-05
2.95098e-05
1.43561e-05
1.1793e-06
-3.31464e-06
-2.54442e-06
-7.37712e-07
2.4735e-07
3.84122e-07
1.9178e-07
2.42959e-08
-3.32897e-08
-2.67129e-08
-9.77963e-09
-3.44658e-09
-5.15483e-09
-7.26706e-09
-6.29137e-09
-3.07482e-09
1.77675e-10
2.06169e-09
2.42563e-09
1.84758e-09
1.00049e-09
3.11394e-10
-8.05271e-11
-2.18353e-10
-2.07394e-10
-1.40655e-10
-7.33379e-11
-2.67887e-11
-2.24095e-12
6.91478e-12
7.921e-12
5.86267e-12
3.42469e-12
1.61429e-12
5.60766e-13
6.79172e-14
-1.01098e-13
-1.20308e-13
-8.91139e-14
-5.28264e-14
-2.63054e-14
-1.07831e-14
-3.16603e-15
-1.07413e-16
7.51144e-16
7.46857e-16
5.13205e-16
2.92055e-16
1.43554e-16
6.05463e-17
2.0477e-17
3.96057e-18
-1.40425e-18
-2.28634e-18
-1.77881e-18
-1.09122e-18
-5.78536e-19
-2.7155e-19
-1.11936e-19
-3.84766e-20
-8.93109e-21
8.16568e-22
2.81065e-21
2.36486e-21
1.50059e-21
8.19613e-22
4.00637e-22
1.76699e-22
6.93192e-23
2.29221e-23
5.20122e-24
-3.93139e-25
-1.48958e-24
-1.24147e-24
-7.81213e-25
-4.25735e-25
-2.09573e-25
-9.44255e-26
-3.89688e-26
-1.14055e-26
1.0079
1.04117
0.991696
0.793611
0.5
0.223365
0.042154
-0.0343031
-0.0421139
-0.0239644
-0.00647534
0.00197761
0.00332499
0.00186777
0.000400612
-0.000245072
-0.000285991
-0.000129612
-8.12874e-06
3.15016e-05
2.39232e-05
7.25529e-06
-1.98397e-06
-3.46241e-06
-1.78206e-06
-2.05834e-07
3.79147e-07
3.23051e-07
1.21877e-07
6.37736e-09
-1.43566e-08
-8.15099e-10
6.49195e-09
1.04502e-09
-8.01103e-09
-1.26558e-08
-1.13164e-08
-6.65328e-09
-1.8995e-09
1.14192e-09
2.24834e-09
2.05777e-09
1.34364e-09
6.35517e-10
1.5736e-10
-7.65006e-11
-1.41711e-10
-1.22894e-10
-7.91178e-11
-4.00064e-11
-1.46231e-11
-1.75583e-12
2.97059e-12
3.58181e-12
2.68685e-12
1.59425e-12
7.77514e-13
2.96598e-13
6.46093e-14
-2.23607e-14
-4.03276e-14
-3.29798e-14
-2.07652e-14
-1.09914e-14
-4.93313e-15
-1.77546e-15
-3.84664e-16
1.00702e-16
1.95495e-16
1.58715e-16
9.95442e-17
5.3294e-17
2.49173e-17
1.00023e-17
3.16375e-18
4.89474e-19
-3.14677e-19
-4.08232e-19
-3.0053e-19
-1.79042e-19
-9.31544e-20
-4.32036e-20
-1.77198e-20
-6.13281e-21
-1.49598e-21
4.54952e-23
3.80812e-22
3.33305e-22
2.14624e-22
1.18458e-22
5.85863e-23
2.628e-23
1.06068e-23
3.71341e-24
9.97773e-25
8.23321e-26
-1.42212e-25
-1.43797e-25
-9.65249e-26
-5.40223e-26
0.998871
1.02303
1.04193
0.973194
0.776635
0.5
0.236308
0.0551561
-0.0291433
-0.0442026
-0.0286476
-0.0100134
0.000663016
0.00351518
0.00249279
0.000838178
-0.00011014
-0.00032511
-0.000202452
-4.98952e-05
2.37009e-05
3.12775e-05
1.49759e-05
1.26907e-06
-3.53033e-06
-2.84344e-06
-9.58498e-07
1.43283e-07
3.58482e-07
2.00842e-07
4.8647e-08
2.76592e-09
1.73389e-08
3.31751e-08
2.83819e-08
1.03597e-08
-6.67543e-09
-1.49402e-08
-1.45873e-08
-9.67846e-09
-4.21879e-09
-3.81867e-10
1.42548e-09
1.75191e-09
1.35083e-09
7.83139e-10
3.2978e-10
6.23263e-11
-5.28436e-11
-7.73463e-11
-6.23933e-11
-3.85189e-11
-1.90205e-11
-6.9772e-12
-1.05277e-12
1.10723e-12
1.42981e-12
1.0907e-12
6.57087e-13
3.29475e-13
1.34203e-13
3.75541e-14
-1.07894e-15
-1.14305e-14
-1.07231e-14
-7.20741e-15
-4.02866e-15
-1.9339e-15
-7.82325e-16
-2.39321e-16
-2.49672e-17
3.73879e-17
4.1347e-17
2.93059e-17
1.70678e-17
8.65914e-18
3.8632e-18
1.47527e-18
4.32029e-19
4.53921e-20
-6.07227e-20
-6.62769e-20
-4.63394e-20
-2.68333e-20
-1.37019e-20
-6.27522e-21
-2.55637e-21
-8.86697e-22
-2.23049e-22
-1.8373e-24
4.81354e-23
4.35836e-23
2.8388e-23
1.57912e-23
7.87888e-24
3.57953e-24
1.47548e-24
5.37528e-25
1.61408e-25
4.46597e-27
0.997793
1.00507
1.03244
1.03887
0.957846
0.763692
0.5
0.246668
0.0663827
-0.0238073
-0.0451887
-0.0325522
-0.0134733
-0.000959179
0.00341734
0.00301639
0.00131432
9.73335e-05
-0.000320957
-0.00026833
-0.000102057
5.40188e-06
3.42803e-05
2.30487e-05
6.29282e-06
-2.36654e-06
-3.55254e-06
-1.84123e-06
-3.08394e-07
2.51134e-07
2.04504e-07
4.02535e-08
-2.44362e-08
3.21175e-09
4.86345e-08
6.53944e-08
5.0576e-08
2.26088e-08
-1.09401e-09
-1.31899e-08
-1.49085e-08
-1.10084e-08
-5.84915e-09
-1.84747e-09
3.60312e-10
1.12606e-09
1.07854e-09
7.34218e-10
3.8714e-10
1.47238e-10
1.97807e-11
-2.93051e-11
-3.66954e-11
-2.79825e-11
-1.67224e-11
-8.12124e-12
-3.00532e-12
-5.41269e-13
3.58252e-13
5.12814e-13
4.00419e-13
2.45374e-13
1.26172e-13
5.40856e-14
1.75462e-14
2.17785e-15
-2.63083e-15
-3.09247e-15
-2.25073e-15
-1.32872e-15
-6.75029e-16
-2.96223e-16
-1.07146e-16
-2.59029e-17
2.51569e-18
8.74807e-18
7.50873e-18
4.82647e-18
2.6453e-18
1.28027e-18
5.46944e-19
1.98759e-19
5.3329e-20
2.27256e-21
-1.03078e-20
-9.89618e-21
-6.61489e-21
-3.73305e-21
-1.87361e-21
-8.48066e-22
-3.43212e-22
-1.19174e-22
-3.07026e-23
-1.16616e-24
5.70654e-24
5.34712e-24
3.52073e-24
1.97238e-24
9.92538e-25
4.1036e-25
0.999036
0.997843
1.01201
1.03844
1.0343
0.944844
0.753332
0.5
0.255249
0.0762288
-0.0184971
-0.0453946
-0.0357829
-0.0167686
-0.00277965
0.00306919
0.00341666
0.00179625
0.000362317
-0.00027105
-0.000319195
-0.000159523
-2.27323e-05
3.1441e-05
3.00741e-05
1.2586e-05
1.92414e-07
-3.5502e-06
-2.57089e-06
-8.184e-07
7.5155e-08
1.61675e-07
-2.2791e-08
-1.29104e-07
-9.59065e-08
-3.42321e-09
6.70281e-08
8.62829e-08
6.67847e-08
3.39386e-08
6.55253e-09
-8.41487e-09
-1.24866e-08
-1.03657e-08
-6.30155e-09
-2.75129e-09
-5.39092e-10
4.56647e-10
6.82976e-10
5.57259e-10
3.4503e-10
1.6842e-10
5.8561e-11
4.90636e-12
-1.38e-11
-1.55103e-11
-1.13282e-11
-6.60624e-12
-3.17531e-12
-1.19113e-12
-2.48287e-13
9.89485e-14
1.67107e-13
1.34778e-13
8.42593e-14
4.43926e-14
1.9855e-14
7.12353e-15
1.5347e-15
-4.09752e-16
-7.87077e-16
-6.38005e-16
-4.00009e-16
-2.14205e-16
-1.00216e-16
-4.02733e-17
-1.27634e-17
-1.98912e-18
1.25976e-18
1.64348e-18
1.21251e-18
7.23516e-19
3.76941e-19
1.75004e-19
7.1818e-20
2.48415e-20
6.02736e-21
-2.25119e-22
-1.57739e-21
-1.3744e-21
-8.84058e-22
-4.87707e-22
-2.41054e-22
-1.07982e-22
-4.34527e-23
-1.51084e-23
-3.97687e-24
-2.5204e-25
6.26419e-25
6.91267e-25
0.999961
0.997493
0.999962
1.01842
1.04211
1.02914
0.933617
0.744751
0.5
0.262537
0.0849758
-0.0133115
-0.0450396
-0.0384394
-0.0198576
-0.00471767
0.00251112
0.00368607
0.00225944
0.000669104
-0.000176884
-0.000349476
-0.000217315
-5.91288e-05
2.19099e-05
3.46689e-05
1.93034e-05
3.95146e-06
-2.68299e-06
-2.912e-06
-1.17387e-06
1.23759e-08
2.27285e-07
-2.46377e-08
-2.50365e-07
-2.75987e-07
-1.6017e-07
-2.09935e-08
6.71809e-08
9.11136e-08
7.29147e-08
4.07908e-08
1.33809e-08
-2.66347e-09
-8.53168e-09
-8.28104e-09
-5.65867e-09
-2.94597e-09
-1.05279e-09
-5.3488e-11
3.13609e-10
3.44928e-10
2.51237e-10
1.4441e-10
6.61748e-11
2.12868e-11
8.19851e-13
-5.7131e-12
-5.9492e-12
-4.20596e-12
-2.40979e-12
-1.15241e-12
-4.39834e-13
-1.03671e-13
2.19431e-14
4.97843e-14
4.19847e-14
2.68823e-14
1.45137e-14
6.73599e-15
2.60407e-15
7.21048e-16
1.22472e-17
-1.71913e-16
-1.6439e-16
-1.10795e-16
-6.25747e-17
-3.09419e-17
-1.34225e-17
-4.91816e-18
-1.30801e-18
-2.83071e-20
2.84813e-19
2.67834e-19
1.78223e-19
1.00256e-19
5.00291e-20
2.23837e-20
8.84788e-21
2.91277e-21
6.27883e-22
-9.00077e-23
-2.21796e-22
-1.79263e-22
-1.11604e-22
-6.03618e-23
-2.94374e-23
-1.30685e-23
-5.26227e-24
-1.40334e-24
1.00021
0.998989
0.996922
1.00302
1.02396
1.0442
1.02381
0.923771
0.737463
0.5
0.268847
0.0928295
-0.00829713
-0.0442768
-0.0406094
-0.0227243
-0.00671456
0.00178128
0.00382592
0.0026865
0.001003
-4.23811e-05
-0.000355751
-0.000270905
-0.000101574
5.52644e-06
3.56608e-05
2.53705e-05
8.29963e-06
-1.1968e-06
-2.92395e-06
-1.33642e-06
1.81442e-07
5.85863e-07
2.44392e-07
-2.05776e-07
-4.18764e-07
-3.75392e-07
-2.08033e-07
-4.50397e-08
5.20553e-08
8.13287e-08
6.86983e-08
4.16367e-08
1.73643e-08
2.179e-09
-4.45639e-09
-5.63507e-09
-4.36526e-09
-2.58508e-09
-1.17455e-09
-3.32123e-10
5.3402e-11
1.65239e-10
1.51735e-10
1.01527e-10
5.50032e-11
2.39395e-11
7.2139e-12
4.28843e-15
-2.12796e-12
-2.09991e-12
-1.44955e-12
-8.20575e-13
-3.9211e-13
-1.5264e-13
-3.99164e-14
2.98899e-15
1.35796e-14
1.21816e-14
8.02807e-15
4.44572e-15
2.13354e-15
8.74743e-16
2.81317e-16
4.3692e-17
-2.9365e-17
-3.82096e-17
-2.83246e-17
-1.69569e-17
-8.83175e-18
-4.07453e-18
-1.64256e-18
-5.42209e-19
-1.09723e-19
2.67082e-20
4.99445e-20
3.93146e-20
2.4243e-20
1.29953e-20
6.24805e-21
2.70414e-21
1.03194e-21
3.23172e-22
6.03584e-23
-1.75622e-23
-2.90655e-23
-2.21387e-23
-1.33879e-23
-6.77601e-24
1.00013
1
0.997981
0.997159
1.00648
1.02865
1.04519
1.0185
0.915024
0.731153
0.5
0.274394
0.0999444
-0.0034734
-0.0432147
-0.0423674
-0.025367
-0.0087281
0.000913707
0.00384271
0.00306578
0.00135111
0.000127243
-0.000336274
-0.000316274
-0.000147276
-1.69758e-05
3.24934e-05
2.98847e-05
1.24563e-05
3.10892e-07
-3.07785e-06
-1.65807e-06
3.90129e-07
1.22756e-06
9.23536e-07
2.17496e-07
-3.16899e-07
-4.98806e-07
-4.15849e-07
-2.31713e-07
-6.72212e-08
2.9508e-08
6.2591e-08
5.7076e-08
3.72322e-08
1.79887e-08
5.11739e-09
-1.24991e-09
-3.19507e-09
-2.92387e-09
-1.9479e-09
-1.028e-09
-4.10652e-10
-8.43427e-11
4.62096e-11
7.3576e-11
5.9839e-11
3.74991e-11
1.93747e-11
8.0914e-12
2.31557e-12
-6.38195e-14
-7.24761e-13
-6.89507e-13
-4.68083e-13
-2.63045e-13
-1.26028e-13
-5.01096e-14
-1.43102e-14
-3.96598e-16
3.37529e-15
3.30501e-15
2.25642e-15
1.28379e-15
6.35709e-16
2.73598e-16
9.74138e-17
2.31879e-17
-2.34096e-18
-7.8213e-18
-6.67157e-18
-4.27982e-18
-2.34944e-18
-1.14405e-18
-4.95316e-19
-1.85221e-19
-5.37854e-20
-6.1318e-21
6.80377e-21
7.57813e-21
5.31527e-21
3.08938e-21
1.59049e-21
7.40238e-22
3.10884e-22
1.1476e-22
3.41458e-23
5.51137e-24
-4.50714e-24
1.00003
1.00026
0.999477
0.997178
0.998022
1.01001
1.03255
1.04539
1.01331
0.90717
0.725606
0.5
0.279329
0.106439
0.00115473
-0.0419321
-0.0437761
-0.0277924
-0.0107282
-6.22127e-05
0.00374572
0.00338999
0.00170241
0.000326061
-0.000290738
-0.000350066
-0.000193022
-4.38315e-05
2.56869e-05
3.27439e-05
1.60804e-05
1.35024e-06
-4.00282e-06
-2.82853e-06
3.20411e-08
1.7544e-06
1.86492e-06
1.07595e-06
1.97973e-07
-3.41088e-07
-4.93335e-07
-4.01485e-07
-2.29238e-07
-8.06545e-08
7.62206e-09
4.15099e-08
4.22849e-08
2.9713e-08
1.59745e-08
6.10362e-09
7.23459e-10
-1.38148e-09
-1.68884e-09
-1.28435e-09
-7.64339e-10
-3.65561e-10
-1.28274e-10
-1.51664e-11
2.4327e-11
2.89727e-11
2.15832e-11
1.2846e-11
6.39046e-12
2.58429e-12
7.1277e-13
-3.12503e-14
-2.28382e-13
-2.12397e-13
-1.42675e-13
-7.99094e-14
-3.84907e-14
-1.56414e-14
-4.81414e-15
-5.11941e-16
7.5262e-16
8.39801e-16
5.99199e-16
3.51154e-16
1.79231e-16
8.04237e-17
3.087e-17
9.06787e-18
9.31702e-19
-1.31647e-18
-1.43483e-18
-1.00675e-18
-5.85335e-19
-2.99975e-19
-1.37721e-19
-5.6102e-20
-1.93383e-20
-4.71638e-21
1.28541e-22
1.18424e-21
1.0401e-21
6.71799e-22
3.72298e-22
1.85178e-22
8.40298e-23
2.88504e-23
0.999982
1.00016
1.00019
0.998814
0.996675
0.999337
1.01347
1.03578
1.04504
1.0083
0.900056
0.720671
0.5
0.283765
0.112406
0.00559006
-0.0404869
-0.0448875
-0.030011
-0.0126938
-0.00112159
0.00354538
0.00365495
0.00204745
0.000547462
-0.000220525
-0.000370209
-0.000235872
-7.26631e-05
1.68558e-05
3.50583e-05
1.99208e-05
2.25186e-06
-5.85805e-06
-5.426e-06
-1.67715e-06
1.4238e-06
2.54147e-06
2.11207e-06
1.09274e-06
1.97416e-07
-2.97169e-07
-4.26893e-07
-3.47945e-07
-2.05194e-07
-8.27892e-08
-8.41778e-09
2.30816e-08
2.80284e-08
2.14016e-08
1.25697e-08
5.67534e-09
1.58835e-09
-2.73328e-10
-8.10402e-10
-7.42504e-10
-4.9761e-10
-2.70608e-10
-1.18552e-10
-3.6244e-11
-4.59799e-13
1.03269e-11
1.03628e-11
7.22528e-12
4.128e-12
1.99293e-12
7.8685e-13
2.12345e-13
-1.00133e-14
-6.71573e-14
-6.17921e-14
-4.12934e-14
-2.31282e-14
-1.1224e-14
-4.66186e-15
-1.52965e-15
-2.56679e-16
1.44458e-16
1.99604e-16
1.50707e-16
9.13095e-17
4.80343e-17
2.23708e-17
9.10894e-18
3.04595e-18
6.35607e-19
-1.37024e-19
-2.75294e-19
-2.19929e-19
-1.36856e-19
-7.38888e-20
-3.57436e-20
-1.55519e-20
-5.96045e-21
-1.87089e-21
-3.46634e-22
1.06974e-22
1.73692e-22
1.31801e-22
7.92311e-23
0.999983
1.00003
1.00026
0.999957
0.998132
0.996485
1.00096
1.01677
1.03844
1.04428
1.00347
0.893561
0.716235
0.5
0.287787
0.11792
0.00983945
-0.0389224
-0.0457453
-0.0320357
-0.0146102
-0.00224354
0.00325252
0.00385877
0.00237806
0.000784056
-0.000129167
-0.000376939
-0.000274505
-0.000101755
7.80882e-06
3.87601e-05
2.59139e-05
4.62518e-06
-7.68598e-06
-9.25405e-06
-5.15303e-06
-4.91793e-07
2.21294e-06
2.76734e-06
2.05445e-06
1.01549e-06
2.05378e-07
-2.18607e-07
-3.31115e-07
-2.75092e-07
-1.68209e-07
-7.52329e-08
-1.7049e-08
9.71973e-09
1.65265e-08
1.39937e-08
8.92428e-09
4.52529e-09
1.69901e-09
2.61335e-10
-2.81552e-10
-3.69735e-10
-2.86357e-10
-1.74587e-10
-8.80743e-11
-3.5597e-11
-9.33109e-12
1.15778e-12
3.82966e-12
3.42689e-12
2.2701e-12
1.25545e-12
5.92164e-13
2.29951e-13
6.16108e-14
-2.33224e-15
-1.8543e-14
-1.70687e-14
-1.14026e-14
-6.40544e-15
-3.13721e-15
-1.33142e-15
-4.61584e-16
-1.00046e-16
2.09231e-17
4.41367e-17
3.59376e-17
2.26298e-17
1.22809e-17
5.91957e-18
2.53058e-18
9.25902e-19
2.54217e-19
1.62105e-20
-4.43099e-20
-4.41593e-20
-3.00021e-20
-1.71525e-20
-8.72458e-21
-4.01243e-21
-1.65924e-21
-5.96551e-22
-1.69272e-22
7.93401e-24
0.999994
0.999978
1.00012
1.0003
0.999599
0.997507
0.996583
1.00278
1.01986
1.04061
1.04321
0.998845
0.887594
0.712213
0.5
0.29146
0.123039
0.0139117
-0.0372715
-0.0463863
-0.0338802
-0.0164676
-0.00341025
0.00287841
0.00400197
0.0026879
0.00102833
-2.21674e-05
-0.000373403
-0.000310551
-0.000131786
-1.17937e-06
4.52026e-05
3.62953e-05
1.10229e-05
-7.27976e-06
-1.29035e-05
-9.88367e-06
-4.1819e-06
3.17057e-07
2.41122e-06
2.57725e-06
1.80183e-06
8.79703e-07
2.07708e-07
-1.35933e-07
-2.33037e-07
-2.00403e-07
-1.27409e-07
-6.18374e-08
-1.93586e-08
1.61433e-09
8.47881e-09
8.30889e-09
5.77537e-09
3.21505e-09
1.42292e-09
4.24457e-10
-1.70073e-11
-1.48912e-10
-1.44603e-10
-9.98695e-11
-5.65053e-11
-2.67308e-11
-1.00173e-11
-2.19381e-12
6.88679e-13
1.28719e-12
1.06111e-12
6.75246e-13
3.63935e-13
1.68667e-13
6.48402e-14
1.7474e-14
-3.09633e-16
-4.82781e-15
-4.49542e-15
-3.01584e-15
-1.70365e-15
-8.43263e-16
-3.65493e-16
-1.32903e-16
-3.40772e-17
7.51563e-19
8.9637e-18
8.11897e-18
5.35436e-18
3.00356e-18
1.49617e-18
6.66988e-19
2.61128e-19
8.36294e-20
1.59153e-20
-4.7437e-21
-7.95358e-21
-6.13607e-21
-3.75531e-21
-2.01174e-21
-9.75666e-22
-3.71598e-22
1
0.999978
1.00001
1.00021
1.00025
0.999162
0.996984
0.996931
1.00472
1.02272
1.04237
1.04193
0.99441
0.88208
0.708541
0.5
0.294834
0.127814
0.0178165
-0.035559
-0.0468411
-0.0355579
-0.018259
-0.00460593
0.00243551
0.00408854
0.00297421
0.00127473
9.47875e-05
-0.000364735
-0.000348731
-0.000166909
-1.30485e-05
5.32889e-05
5.19084e-05
2.36874e-05
-1.89072e-06
-1.39494e-05
-1.42534e-05
-8.92472e-06
-3.11863e-06
6.85299e-07
2.19271e-06
2.15306e-06
1.45777e-06
7.16362e-07
1.96656e-07
-6.81201e-08
-1.49553e-07
-1.35378e-07
-8.9772e-08
-4.66467e-08
-1.75867e-08
-2.32204e-09
3.54506e-09
4.44761e-09
3.42214e-09
2.0743e-09
1.02935e-09
3.96049e-10
8.27992e-11
-3.70845e-11
-6.18926e-11
-5.06512e-11
-3.21333e-11
-1.71044e-11
-7.65127e-12
-2.66891e-12
-4.69056e-13
2.81018e-13
4.00479e-13
3.10579e-13
1.91471e-13
1.01133e-13
4.62773e-14
1.77112e-14
4.85278e-15
5.10284e-17
-1.18803e-15
-1.13255e-15
-7.66447e-16
-4.36448e-16
-2.1858e-16
-9.66988e-17
-3.666e-17
-1.0598e-17
-9.87836e-19
1.62357e-18
1.7323e-18
1.21022e-18
7.04098e-19
3.62347e-19
1.67714e-19
6.93063e-20
2.45663e-20
6.48012e-21
2.88613e-22
-1.20762e-21
-1.15103e-21
-7.80784e-22
1
0.999992
0.999971
1.00006
1.00029
1.00011
0.998686
0.996583
0.997489
1.00671
1.02537
1.04378
1.04049
0.990161
0.876961
0.705166
0.5
0.297952
0.132284
0.0215638
-0.0338041
-0.047136
-0.0370823
-0.0199803
-0.00581638
0.00193795
0.00412714
0.00324006
0.00152284
0.000219301
-0.000355033
-0.000394837
-0.000213965
-3.43237e-05
5.82488e-05
7.05492e-05
4.28788e-05
1.04008e-05
-9.85639e-06
-1.59705e-05
-1.31365e-05
-7.29621e-06
-2.2278e-06
7.25669e-07
1.76439e-06
1.65214e-06
1.10208e-06
5.50941e-07
1.72464e-07
-2.20218e-08
-8.73606e-08
-8.51139e-08
-5.91389e-08
-3.26287e-08
-1.39396e-08
-3.55329e-09
9.21618e-10
2.10046e-09
1.85467e-09
1.22718e-09
6.68033e-10
2.98262e-10
9.77862e-11
8.87673e-12
-1.99263e-11
-2.23172e-11
-1.62947e-11
-9.67517e-12
-4.89444e-12
-2.08449e-12
-6.79167e-13
-8.98491e-14
9.65626e-14
1.16933e-13
8.65609e-14
5.20456e-14
2.70653e-14
1.22787e-14
4.70067e-15
1.32013e-15
5.78533e-17
-2.76404e-16
-2.736e-16
-1.87648e-16
-1.07966e-16
-5.47664e-17
-2.47158e-17
-9.72175e-18
-3.07646e-18
-5.26628e-19
2.42478e-19
3.46598e-19
2.61138e-19
1.58399e-19
8.42873e-20
4.03992e-20
1.74689e-20
6.66422e-21
2.10863e-21
1.13005e-22
1
1
0.99998
0.999981
1.00013
1.00033
0.999903
0.998204
0.996314
0.998219
1.00873
1.02779
1.04489
1.03892
0.986088
0.872186
0.702048
0.499999
0.300846
0.136485
0.025164
-0.032022
-0.0472945
-0.0384678
-0.0216311
-0.00703058
0.0014
0.00413046
0.00349534
0.00178005
0.000356132
-0.000343034
-0.000451752
-0.000279448
-7.3358e-05
5.21122e-05
8.64056e-05
6.56853e-05
2.92945e-05
7.72367e-07
-1.29771e-05
-1.48921e-05
-1.08366e-05
-5.57237e-06
-1.56551e-06
5.92134e-07
1.2914e-06
1.18068e-06
7.84954e-07
4.0154e-07
1.40316e-07
3.87903e-09
-4.59299e-08
-4.98569e-08
-3.65554e-08
-2.13225e-08
-9.99718e-09
-3.35691e-09
-2.33164e-10
8.24814e-10
9.11239e-10
6.68032e-10
3.96e-10
1.96741e-10
7.91471e-11
2.11248e-11
-1.96992e-12
-7.98155e-12
-7.28318e-12
-4.89436e-12
-2.75542e-12
-1.33526e-12
-5.44651e-13
-1.66379e-13
-1.48232e-14
2.9769e-14
3.23521e-14
2.31059e-14
1.36229e-14
7.00215e-15
3.1605e-15
1.21498e-15
3.51669e-16
2.79417e-17
-6.06603e-17
-6.34828e-17
-4.4349e-17
-2.58432e-17
-1.3291e-17
-6.11576e-18
-2.48599e-18
-8.44529e-19
-1.92063e-19
2.12101e-20
6.40836e-20
5.36656e-20
3.42102e-20
1.88636e-20
9.37677e-21
3.67769e-21
1
1
0.999995
0.99997
1.00001
1.0002
1.00032
0.999638
0.997741
0.996174
0.999086
1.01073
1.03001
1.04575
1.03727
0.982184
0.867716
0.699153
0.499999
0.303545
0.140446
0.0286271
-0.030225
-0.047339
-0.0397325
-0.0232179
-0.00824455
0.000831743
0.00411139
0.00375439
0.00206135
0.000519143
-0.00031855
-0.000515055
-0.000365162
-0.000136727
2.61437e-05
9.12206e-05
8.60987e-05
5.16164e-05
1.72118e-05
-4.43108e-06
-1.27016e-05
-1.22764e-05
-8.25947e-06
-4.0437e-06
-1.09729e-06
4.07141e-07
8.72943e-07
7.92812e-07
5.29728e-07
2.7815e-07
1.06501e-07
1.4944e-08
-2.10735e-08
-2.71524e-08
-2.12458e-08
-1.3088e-08
-6.61382e-09
-2.60946e-09
-5.84323e-10
2.15265e-10
3.96233e-10
3.33719e-10
2.16222e-10
1.17424e-10
5.37252e-11
1.93693e-11
3.79898e-12
-1.72501e-12
-2.74701e-12
-2.20217e-12
-1.38875e-12
-7.48427e-13
-3.4969e-13
-1.3736e-13
-3.95223e-14
-1.86498e-15
8.47793e-15
8.54236e-15
5.93476e-15
3.44645e-15
1.75673e-15
7.912e-16
3.06367e-16
9.16889e-17
1.05672e-17
-1.24781e-17
-1.41589e-17
-1.01342e-17
-5.99594e-18
-3.12969e-18
-1.46777e-18
-6.1461e-19
-2.21132e-19
-5.96981e-20
-3.43878e-21
1.06107e-20
1.04003e-20
7.13546e-21
1
1
1
0.999986
0.999968
1.00005
1.00027
1.00027
0.999331
0.997313
0.996157
1.00006
1.01269
1.03204
1.04639
1.03556
0.978437
0.863516
0.696454
0.499998
0.306073
0.144195
0.0319639
-0.0284229
-0.0472917
-0.0408996
-0.0247573
-0.00946664
0.000232344
0.00407584
0.00402972
0.00238484
0.000729291
-0.000261979
-0.000570524
-0.000464486
-0.00022517
-2.55499e-05
7.69492e-05
9.65481e-05
7.1843e-05
3.64179e-05
8.71402e-06
-6.18425e-06
-1.06489e-05
-9.2719e-06
-5.91923e-06
-2.81543e-06
-7.6886e-07
2.41134e-07
5.4981e-07
5.03235e-07
3.40148e-07
1.83626e-07
7.58862e-08
1.70251e-08
-7.70997e-09
-1.36522e-08
-1.16138e-08
-7.57344e-09
-4.08329e-09
-1.79951e-09
-5.68828e-10
-2.77064e-11
1.42836e-10
1.51232e-10
1.08943e-10
6.43787e-11
3.24672e-11
1.37427e-11
4.38214e-12
4.68894e-13
-7.48746e-13
-8.55399e-13
-6.26209e-13
-3.75519e-13
-1.95172e-13
-8.84125e-14
-3.36183e-14
-9.16469e-15
-7.51844e-17
2.26734e-15
2.16441e-15
1.47235e-15
8.45349e-16
4.28504e-16
1.93044e-16
7.54694e-17
2.33866e-17
3.50164e-18
-2.37289e-18
-3.03512e-18
-2.24151e-18
-1.35029e-18
-7.16129e-19
-3.42227e-19
-1.47244e-19
-5.55507e-20
-1.70723e-20
-3.338e-22
1
1
1
0.999999
0.999976
0.999976
1.0001
1.00032
1.00018
0.998997
0.996934
0.996254
1.00112
1.01461
1.03388
1.04684
1.0338
0.97484
0.859557
0.693924
0.499994
0.308449
0.147756
0.035188
-0.0266213
-0.0471736
-0.0419972
-0.0262778
-0.0107213
-0.000416404
0.00401439
0.00432289
0.00276345
0.0010082
-0.000148161
-0.000595292
-0.000561251
-0.000330945
-0.00010273
3.89022e-05
9.03704e-05
8.36809e-05
5.37649e-05
2.3814e-05
3.66653e-06
-5.88815e-06
-8.05103e-06
-6.54181e-06
-4.03194e-06
-1.89146e-06
-5.35501e-07
1.2087e-07
3.24199e-07
3.032e-07
2.08491e-07
1.15821e-07
5.10597e-08
1.47505e-08
-1.42127e-09
-6.23476e-09
-5.95891e-09
-4.1399e-09
-2.37e-09
-1.13647e-09
-4.31152e-10
-9.41213e-11
3.29904e-11
6.03405e-11
5.03956e-11
3.26236e-11
1.79113e-11
8.46208e-12
3.31824e-12
9.13616e-13
-1.43258e-14
-2.60096e-13
-2.47345e-13
-1.69216e-13
-9.74249e-14
-4.9127e-14
-2.16815e-14
-8.02128e-15
-2.08741e-15
5.37784e-17
5.75358e-16
5.28504e-16
3.53917e-16
2.01547e-16
1.01841e-16
4.59856e-17
1.81821e-17
5.83422e-18
1.06186e-18
-4.04538e-19
-6.24462e-19
-4.80196e-19
-2.95478e-19
-1.59426e-19
-7.78956e-20
-2.94987e-20
1
1
1
1
0.999993
0.999969
0.999995
1.00016
1.00035
1.00004
0.998649
0.99661
0.996455
1.00224
1.01647
1.03556
1.04713
1.03203
0.971382
0.855812
0.69154
0.499985
0.310693
0.151158
0.0383207
-0.0248157
-0.0469984
-0.0430528
-0.0278154
-0.0120484
-0.00115265
0.00389637
0.00461617
0.00319536
0.00136898
4.60847e-05
-0.000562965
-0.000632208
-0.00043796
-0.000197517
-2.19192e-05
6.4242e-05
8.20947e-05
6.44373e-05
3.72877e-05
1.47355e-05
1.10896e-06
-4.70343e-06
-5.63106e-06
-4.36402e-06
-2.62901e-06
-1.23012e-06
-3.67545e-07
4.6691e-08
1.79227e-07
1.73869e-07
1.22287e-07
6.99575e-08
3.26066e-08
1.10837e-08
9.89666e-10
-2.48818e-09
-2.85349e-09
-2.13843e-09
-1.29918e-09
-6.68273e-10
-2.85591e-10
-8.95345e-11
-6.28817e-12
1.94863e-11
2.10627e-11
1.52705e-11
9.12263e-12
4.70957e-12
2.09662e-12
7.60707e-13
1.73359e-13
-3.53679e-14
-7.99096e-14
-6.74558e-14
-4.37878e-14
-2.43827e-14
-1.19884e-14
-5.1772e-15
-1.87293e-15
-4.69568e-16
2.46135e-17
1.39506e-16
1.24793e-16
8.26427e-17
4.68093e-17
2.36263e-17
1.07106e-17
4.28811e-18
1.42354e-18
3.01295e-19
-5.6982e-20
-1.22981e-19
-9.93747e-20
-6.16743e-20
1
1
1
1
1
0.999985
0.999966
1.00002
1.00022
1.00036
0.999873
0.998297
0.996345
0.996748
1.00341
1.01826
1.03708
1.04729
1.03023
0.968055
0.852253
0.689279
0.499966
0.312825
0.154436
0.0413979
-0.0229832
-0.0467626
-0.0440831
-0.0294043
-0.0134951
-0.00203026
0.00366987
0.00486854
0.00365705
0.00180756
0.000333129
-0.000451239
-0.000652569
-0.000524941
-0.000295409
-9.82597e-05
1.96194e-05
6.49956e-05
6.49296e-05
4.57085e-05
2.44341e-05
8.76653e-06
4.13496e-08
-3.35937e-06
-3.69845e-06
-2.77488e-06
-1.64906e-06
-7.75898e-07
-2.46655e-07
7.67846e-09
9.26875e-08
9.50343e-08
6.87618e-08
4.05462e-08
1.98478e-08
7.57096e-09
1.53947e-09
-7.7441e-10
-1.25956e-09
-1.04178e-09
-6.74286e-10
-3.69391e-10
-1.72432e-10
-6.49899e-11
-1.5156e-11
3.42917e-12
7.6342e-12
6.54492e-12
4.30347e-12
2.41162e-12
1.18048e-12
4.97184e-13
1.66308e-13
2.89793e-14
-1.57243e-14
-2.25978e-14
-1.75316e-14
-1.09147e-14
-5.91237e-15
-2.84653e-15
-1.20762e-15
-4.29318e-16
-1.04802e-16
7.30413e-18
3.24801e-17
2.85729e-17
1.87869e-17
1.06095e-17
5.35855e-18
2.44215e-18
9.90832e-19
3.39671e-19
8.26814e-20
-2.01839e-20
1
1
1
1
1
0.999999
0.999977
0.999968
1.00006
1.00027
1.00034
0.999674
0.997951
0.996141
0.997124
1.00461
1.01998
1.03846
1.04734
1.02844
0.964849
0.848854
0.687112
0.499931
0.31487
0.157641
0.0444772
-0.0210733
-0.046434
-0.04508
-0.0310621
-0.0151023
-0.00310727
0.0032695
0.00501888
0.00410194
0.00229784
0.000707576
-0.000249468
-0.000602843
-0.000570651
-0.000378534
-0.000178051
-3.73298e-05
3.3987e-05
5.41025e-05
4.68158e-05
3.04787e-05
1.53252e-05
5.08101e-06
-2.72757e-07
-2.20856e-06
-2.30327e-06
-1.69141e-06
-9.98586e-07
-4.75179e-07
-1.60955e-07
-8.88182e-09
4.4505e-08
4.95201e-08
3.71125e-08
2.25878e-08
1.1557e-08
4.81034e-09
1.3515e-09
-9.06404e-11
-4.98776e-10
-4.76146e-10
-3.31493e-10
-1.9301e-10
-9.68309e-11
-4.10791e-11
-1.32825e-11
-1.59771e-12
2.11357e-12
2.50869e-12
1.8727e-12
1.14431e-12
6.08189e-13
2.84018e-13
1.13479e-13
3.47855e-14
3.87948e-15
-5.25789e-15
-6.00575e-15
-4.3745e-15
-2.63295e-15
-1.394e-15
-6.5961e-16
-2.759e-16
-9.68525e-17
-2.32864e-17
1.7754e-18
7.28658e-18
6.35775e-18
4.16522e-18
2.35035e-18
1.1896e-18
5.48302e-19
1.85722e-19
1
1
1
1
1
1
0.999994
0.99997
0.999978
1.0001
1.00032
1.00029
0.99945
0.997619
0.996
0.997572
1.00582
1.02162
1.03971
1.04729
1.02667
0.961754
0.845582
0.685004
0.499869
0.316854
0.160833
0.0476416
-0.0190017
-0.0459425
-0.0459982
-0.032774
-0.0168872
-0.00442915
0.00263063
0.00499628
0.00446611
0.00279288
0.00114373
3.6422e-05
-0.000474682
-0.000559426
-0.000430057
-0.000247328
-9.7222e-05
-6.03292e-06
3.3468e-05
4.01056e-05
3.1516e-05
1.93524e-05
9.28503e-06
2.90035e-06
-2.75441e-07
-1.3579e-06
-1.36916e-06
-9.92483e-07
-5.853e-07
-2.82775e-07
-1.01814e-07
-1.32102e-08
1.94996e-08
2.45649e-08
1.92378e-08
1.21113e-08
6.45614e-09
2.88074e-09
9.7297e-10
1.22047e-10
-1.65321e-10
-2.01893e-10
-1.54071e-10
-9.56024e-11
-5.11314e-11
-2.36683e-11
-9.06944e-12
-2.3668e-12
1.6832e-13
8.07795e-13
7.40903e-13
5.02937e-13
2.90011e-13
1.47351e-13
6.59592e-14
2.50495e-14
6.97642e-15
2.50109e-16
-1.53392e-15
-1.51906e-15
-1.05379e-15
-6.16977e-16
-3.20532e-16
-1.49542e-16
-6.18742e-17
-2.15463e-17
-5.16164e-18
3.70521e-19
1.57889e-18
1.37744e-18
9.01914e-19
4.80265e-19
1
1
1
1
1
1
1
0.999987
0.999965
0.999994
1.00015
1.00035
1.00022
0.999209
0.99731
0.995923
0.998081
1.00703
1.02318
1.04085
1.04718
1.02493
0.958753
0.842388
0.682905
0.499758
0.318804
0.164087
0.0509966
-0.0166513
-0.0451778
-0.0467481
-0.0344812
-0.0188281
-0.00601159
0.00170656
0.00473521
0.00467991
0.00323207
0.00159849
0.000383289
-0.000273906
-0.00048529