/*--------------------------------*- C++ -*----------------------------------*\
  =========                 |
  \\      /  F ield         | OpenFOAM: The Open Source CFD Toolbox
   \\    /   O peration     | Website:  https://openfoam.org
    \\  /    A nd           | Version:  7
     \\/     M anipulation  |
\*---------------------------------------------------------------------------*/
FoamFile
{
    version     2.0;
    format      ascii;
    class       volScalarField;
    location    "0.65";
    object      T;
}
// * * * * * * * * * * * * * * * * * * * * * * * * * * * * * * * * * * * * * //

dimensions      [0 0 0 1 0 0 0];

internalField   nonuniform List<scalar> 
23686
(
0.509941
0.910643
0.997281
0.975489
1.00718
1.01727
1.00286
1.00909
1.00026
1.00127
0.999751
0.999405
0.999891
0.999662
0.999995
0.99997
1.00001
1.00003
1.00001
1.00002
1
1
0.999999
0.999998
1
0.999999
1
1
1
1
1
1
1
1
1
1
1
1
1
1
1
1
1
1
1
1
1
1
1
1
1
1
1
1
1
1
1
1
1
1
1
1
1
1
1
1
1
1
1
1
1
1
1
1
1
1
1
1
1
1
1
1
1
1
1
1
1
1
1
1
1
1
1
1
1
1
1
1
1
1
1
1
1
1
1
1
1
1
1
1
1
1
1
1
1
1
1
1
1
1
1
1
1
1
1
1
1
1
1
1
1
1
1
1
1
1
1
1
1
1
1
1
1
1
1
1
1
1
1
1
1
1
1
1
1
1
1
1
1
1
1
1
1
1
1
1
1
1
1
1
1
1
1
1
1
1
1
1
1
1
1
1
1
1
1
1
1
1
1
1
1
1
1
1
1
1
1
1
1
0.11164
-0.00310636
-0.000317299
5.52315e-05
-1.03085e-05
1.75243e-07
1.75516e-07
-3.22223e-08
2.01359e-09
3.75099e-10
-1.68621e-10
1.44737e-11
1.36944e-12
-8.0291e-13
9.04315e-14
5.86416e-15
-3.45458e-15
4.76626e-16
-1.86986e-17
-1.65633e-17
4.74992e-18
-2.51669e-19
-1.20382e-19
5.26214e-20
-1.50429e-21
-3.49366e-21
-4.44651e-23
2.17798e-22
2.84309e-23
-3.55402e-24
-1.47977e-24
-1.11242e-25
1.72648e-26
3.59056e-27
1.52321e-28
-4.45872e-29
-8.22798e-30
-2.24385e-31
6.89064e-32
1.22515e-32
6.75605e-34
-6.65802e-35
-1.32716e-35
-8.94213e-37
3.09654e-38
1.09909e-38
1.11625e-39
4.6185e-41
-5.03565e-42
1.02805e-58
-2.60871e-42
3.22408e-41
1.71614e-39
4.88184e-40
-2.73304e-37
-4.92313e-36
-1.81044e-34
2.7983e-33
1.52917e-31
2.44601e-30
3.5759e-29
-2.69953e-29
-1.21987e-27
-1.64462e-26
1.36757e-25
2.35962e-24
-1.15922e-23
-2.17525e-22
5.04778e-22
2.39651e-21
-2.54163e-19
-3.16135e-19
7.62919e-18
6.79433e-17
-7.21626e-17
1.04019e-15
2.3197e-14
3.17662e-15
-5.04645e-13
-3.22387e-12
-4.16917e-12
-2.72968e-12
3.87031e-11
-5.54402e-11
-6.46543e-12
3.01481e-10
-1.14134e-09
1.316e-10
2.5632e-09
1.1716e-08
-9.09578e-10
-6.98972e-08
-4.44918e-07
-5.97838e-07
1.87135e-06
1.11779e-05
3.55414e-05
7.78839e-05
0.000114515
0.000168304
1
1
1
1
1
1
1
1
1
1
1
1
1
1
1
1
1
1
1
1
1
1
1
1
1
1
1
1
1
1
1
1
1
1
1
1
1
1
1
1
1
1
1
1
1
1
1
1
1
1
1
1
1
1
1
1
0.999999
0.999999
1
1
1
1
1
1
0.999999
1
1
1
1
1
0.999991
0.999993
0.999977
0.999979
0.999981
0.999979
1.00002
1.00001
1.00007
1.00006
1.00014
1.00012
1.0002
1.00018
1.00019
1.00019
1.00002
1.00006
0.999463
0.999609
0.998231
0.998632
0.996189
0.996875
0.992796
0.993854
0.98745
0.989112
0.979466
0.981966
0.968304
0.97166
0.954198
0.958357
0.936054
0.941538
0.913544
0.920463
0.886658
0.894792
0.85565
0.864782
0.820411
0.831011
0.780269
0.792294
0.737575
0.750173
0.691807
0.705399
0.643266
0.657548
0.594812
0.608803
0.545723
0.560033
0.494942
0.509599
0.446903
0.460565
0.400541
0.413818
0.355339
0.368467
0.312406
0.324577
0.273797
0.284639
0.237452
0.247632
0.204483
0.213746
0.174018
0.182494
0.147885
0.155148
0.124874
0.131358
0.103868
0.109692
0.0863599
0.0911934
0.0712028
0.0753881
0.0581131
0.061692
0.0473305
0.0502639
0.0383864
0.0408591
0.0306032
0.0327115
0.0244726
0.026122
0.0194466
0.0208028
0.0152882
0.0164103
0.0120429
0.0129366
0.00932677
0.0100628
0.00724997
0.00781371
0.00557365
0.00602468
0.00423667
0.00459246
0.00323936
0.00350625
0.00246928
0.00267806
0.00184719
0.00201131
0.00138448
0.00150551
0.00103633
0.00112991
0.000767031
0.000843426
0.00055862
0.000619708
0.000410043
0.000455604
0.000279722
0.000192112
0.000310981
-2.35314e-42
0.000137198
0.0139069
-0.00200416
0.000101508
-3.29739e-06
-3.45346e-06
5.32192e-07
-1.86721e-08
-8.67423e-09
1.98582e-09
-2.29595e-10
-3.01278e-11
1.01877e-11
-1.2649e-12
-1.00877e-13
5.22875e-14
-6.1382e-15
-2.68737e-16
2.00396e-16
-4.78379e-17
2.65439e-18
1.53766e-18
-4.01258e-19
3.80464e-20
1.97181e-20
-5.72747e-21
-1.18985e-21
2.66759e-22
1.0156e-22
1.79714e-24
-2.9078e-24
-5.21222e-25
4.54729e-27
9.78051e-27
9.66787e-28
-3.13109e-29
-2.40152e-29
-1.93163e-30
7.41437e-32
3.42276e-32
3.40816e-33
1.51876e-35
-3.62488e-35
-3.93698e-36
-1.031e-37
2.55786e-38
3.84734e-39
2.73404e-40
-9.30194e-43
-0.00133342
-2.9659e-42
0.000159457
9.43465e-42
1.38904e-40
-2.00334e-38
2.3815e-37
9.60236e-37
8.2202e-36
6.74552e-34
-3.11181e-32
-5.95536e-31
-1.18222e-29
-4.21913e-29
1.53207e-28
6.06673e-27
1.73464e-26
-8.83214e-25
-2.60775e-24
7.78546e-23
2.93813e-22
-3.78166e-21
5.10752e-20
5.4636e-19
-1.66108e-18
-2.68118e-17
-7.99121e-17
2.41755e-16
-7.8497e-15
-3.56536e-14
1.39145e-13
1.43906e-12
4.74637e-12
3.66824e-12
-6.4827e-12
-4.75183e-11
1.58757e-10
-1.33274e-10
-3.18168e-11
-6.89073e-10
3.10919e-10
8.82973e-09
1.47627e-08
-3.78839e-08
-2.14138e-07
-6.3565e-07
1.49424e-07
5.4733e-06
2.03122e-05
5.71772e-05
0.000104645
0.000148593
0.0642368
-2.77272e-05
0.453368
0.000140418
1.57756e-06
-1.07378e-05
1.40764e-06
-1.25929e-08
-2.71604e-08
5.36429e-09
-5.3326e-10
-1.06629e-10
2.86298e-11
-3.09239e-12
-3.83965e-13
1.52087e-13
-1.55838e-14
-1.31633e-15
5.64401e-16
-1.24718e-16
5.4566e-18
4.55268e-18
-1.07914e-18
1.19878e-19
5.84911e-20
-1.92003e-20
-3.99754e-21
8.58954e-22
3.50278e-22
8.8423e-24
-9.34968e-24
-1.83495e-24
-4.7473e-27
3.29229e-26
3.67224e-27
-7.89782e-29
-8.03415e-29
-7.72186e-30
1.43289e-31
1.16435e-31
1.30501e-32
2.31617e-34
-1.2311e-34
-1.51501e-35
-5.51886e-37
7.86161e-38
1.43823e-38
1.0755e-39
1.27074e-41
-7.75438e-42
1.92506e-40
-1.6117e-38
2.36922e-37
4.9999e-37
1.70751e-36
4.68193e-34
-2.9965e-32
-5.59034e-31
-1.02575e-29
-2.62528e-29
2.26547e-28
5.5484e-27
4.74167e-27
-8.34318e-25
-2.38053e-24
5.99025e-23
1.44051e-22
-3.65154e-21
4.07003e-20
3.71722e-19
-2.01886e-18
-2.27993e-17
-5.8908e-17
2.39316e-16
-6.65325e-15
-3.07723e-14
9.36075e-14
1.05412e-12
3.75017e-12
3.22066e-12
-4.73361e-12
-4.28214e-11
1.43731e-10
-1.05376e-10
-8.16302e-11
-7.69138e-10
4.67309e-10
9.5946e-09
1.53622e-08
-4.23586e-08
-2.50413e-07
-7.04074e-07
2.3971e-07
6.49345e-06
2.38451e-05
6.58911e-05
0.000118028
8.28971e-42
-1.13217e-07
5.32847e-07
-8.58979e-08
3.92802e-09
1.22829e-09
-4.57859e-10
3.28324e-11
4.8865e-12
-2.17919e-12
2.2609e-13
2.24111e-14
-9.35762e-15
1.11632e-15
-2.95229e-17
-4.77687e-17
1.22847e-17
-5.53428e-19
-3.14787e-19
1.47726e-19
-4.28602e-21
-1.16006e-20
-1.2484e-22
6.85795e-22
1.03857e-22
-1.16902e-23
-4.74475e-24
-4.34061e-25
5.47092e-26
1.3132e-26
6.69882e-28
-1.44709e-28
-3.04501e-29
-1.19168e-30
2.23478e-31
4.5735e-32
2.80842e-33
-1.64386e-34
-4.85893e-35
-3.64554e-36
3.82029e-38
3.94192e-38
4.32884e-39
2.04607e-40
-1.18996e-41
6.66785e-40
-5.2968e-39
-1.94579e-37
-4.16329e-36
-1.2345e-34
3.32899e-33
1.44567e-31
2.22783e-30
3.03152e-29
-6.30733e-29
-1.26794e-27
-1.24855e-26
1.54229e-25
2.17491e-24
-9.03082e-24
-1.64887e-22
6.66509e-22
2.89729e-21
-1.97076e-19
5.5068e-21
7.34765e-18
5.47303e-17
-9.23156e-17
8.66816e-16
2.01745e-14
7.21372e-15
-3.6671e-13
-2.48501e-12
-3.18551e-12
-2.95814e-12
3.53946e-11
-5.13619e-11
4.71963e-12
2.69802e-10
-1.1514e-09
1.00203e-10
3.08592e-09
1.33973e-08
-2.10317e-09
-8.87128e-08
-5.01418e-07
-6.28015e-07
2.30029e-06
1.31161e-05
4.14721e-05
9.03951e-05
0.000131369
-0.00528114
-0.00556021
3.48736e-41
0.594883
-0.00160947
0.942444
1.00339
0.979133
1.00791
1.01325
1.00265
1.00761
0.999944
1.00096
0.999656
0.999356
0.999885
0.999649
1
0.999959
1.00002
1.00003
1.00001
1.00002
1
1
0.999999
0.999998
1
0.999999
1
1
1
1
1
1
1
1
1
1
1
1
1
1
1
1
1
1
1
1
1
1
1
1
1
1
1
1
1
1
1
1
1
1
1
1
1
1
1
1
1
1
1
1
1
1
1
1
1
1
1
1
1
1
1
1
1
1
1
1
1
1
1
1
1
1
1
1
1
1
1
1
1
1
1
1
1
1
1
1
1
1
1
1
1
1
1
1
1
1
1
1
1
1
1
1
1
1
1
1
1
1
1
1
1
1
1
1
1
1
1
1
1
1
1
1
1
1
1
1
1
1
1
1
1
1
1
1
1
1
1
1
1
1
1
1
1
1
1
1
1
1
1
1
1
1
1
1
1
1
1
1
1
1
1
1
1
1
1
1
1
1
1
1
1
1
1
1
1
5.92528e-41
0.00261077
0.000236229
0.235597
-1.05639e-05
-3.43467e-06
7.57138e-07
-5.52954e-08
-7.56084e-09
3.24048e-09
-3.78289e-10
-2.40973e-11
1.56854e-11
-2.16021e-12
-8.10452e-14
7.13968e-14
-1.07479e-14
4.17306e-16
2.98986e-16
-8.51906e-17
6.88635e-18
2.0153e-18
-8.05156e-19
1.04697e-19
4.93237e-20
-9.3108e-21
-3.86673e-21
7.40039e-23
1.66695e-22
2.00106e-23
-2.20194e-24
-7.63915e-25
-4.42014e-26
1.0256e-26
1.89648e-27
1.07029e-28
-2.23358e-29
-3.94859e-30
-1.97362e-31
2.14791e-32
5.15278e-33
3.3439e-34
-1.5055e-35
-5.55503e-36
-4.84537e-37
-7.69056e-39
2.53998e-39
4.01053e-40
2.38443e-41
-1.00967e-39
-0.00445074
-0.00527208
-0.00421271
-1.15995e-42
0.000204332
0.000284093
-1.31586e-05
-1.12008e-05
0.517419
1.69869e-38
-3.11795e-37
-6.00244e-36
-9.29905e-35
2.58408e-33
1.66349e-31
2.42528e-30
4.07476e-29
-7.14694e-29
-1.39591e-27
-1.65384e-26
1.45189e-25
3.13305e-24
-5.71233e-24
-2.29989e-22
5.44519e-22
8.2591e-21
-2.36891e-19
-2.60307e-19
8.9946e-18
7.83644e-17
-7.38609e-17
5.73817e-16
2.83563e-14
3.39324e-14
-4.68272e-13
-3.60746e-12
-6.09175e-12
-6.08624e-12
4.90332e-11
-3.62338e-11
-7.10962e-11
4.16135e-10
-1.70474e-09
4.94034e-10
5.44745e-09
1.73513e-08
-1.42934e-08
-1.45581e-07
-7.17581e-07
-5.93745e-07
4.07211e-06
1.99535e-05
6.04365e-05
0.00012463
0.000157913
0.000205744
0.0528654
0.185682
0.025489
7.61732e-05
0.000473589
6.62957e-05
7.89362e-06
1
1
1
1
1
1
1
1
1
1
1
1
1
1
1
1
1
1
1
1
1
1
1
1
1
1
1
1
1
1
1
1
1
1
1
1
1
1
1
1
1
1
1
1
1
1
1
1
1
1
1
1
1
1
0.999999
0.999999
1
1
1
1
0.999999
1
1
1
1
1
1
1
0.999986
0.999991
0.999974
0.999975
0.999986
0.999978
1.00003
1.00001
1.00008
1.00006
1.00014
1.00012
1.00019
1.00018
1.00017
1.00021
0.99997
1.00012
0.999361
0.999744
0.99816
0.998865
0.996178
0.99738
0.992674
0.994569
0.987211
0.989949
0.979286
0.983166
0.968108
0.973616
0.953576
0.960275
0.935635
0.943791
0.913539
0.923558
0.886697
0.898741
0.855196
0.868839
0.820326
0.835119
0.780916
0.797882
0.737732
0.755687
0.69236
0.711358
0.644067
0.663934
0.594927
0.614669
0.545774
0.564974
0.496072
0.515985
0.447206
0.466352
0.400566
0.418465
0.356532
0.373412
0.313715
0.330301
0.273651
0.288382
0.237959
0.251495
0.204932
0.217145
0.174735
0.185941
0.148262
0.157917
0.125357
0.133636
0.104631
0.112208
0.0867333
0.0930965
0.0714698
0.076853
0.0584768
0.0630989
0.0475388
0.0513887
0.0385589
0.0416614
0.0309028
0.0335879
0.0246036
0.0267817
0.0194856
0.0212072
0.0154392
0.0168472
0.0121465
0.0132422
0.00946281
0.0103821
0.00732519
0.00804085
0.00563409
0.00620209
0.00429476
0.00474526
0.0032769
0.00361773
0.0024951
0.0027502
0.00187755
0.00208272
0.00139344
0.0015479
0.00104079
0.00115228
0.000784489
0.000865946
0.000591038
0.000660678
0.759785
1.3906e-41
-0.000422185
0.806072
7.54758e-41
0.000213928
2.12502e-40
1.40031e-41
6.51626e-07
1.63027e-07
-4.58153e-08
4.84777e-09
4.09134e-10
-2.17894e-10
2.77065e-11
1.32248e-12
-1.08727e-12
1.45693e-13
3.11034e-15
-4.26272e-15
9.41436e-16
-5.76839e-17
-2.46589e-17
7.85521e-18
-7.38697e-19
-2.17464e-19
1.21879e-19
3.38818e-21
-7.90405e-21
-1.03782e-21
2.6331e-22
6.88156e-23
1.58327e-24
-1.69777e-24
-2.44861e-25
7.09424e-27
5.20465e-27
5.64064e-28
-1.30103e-29
-1.13855e-29
-1.04086e-30
-1.00732e-33
1.26995e-32
1.57726e-33
2.82746e-35
-1.18364e-35
-1.88573e-36
-9.02821e-38
3.69464e-39
1.1137e-39
1.06037e-40
-4.60373e-40
-2.0881e-07
-1.88923e-38
3.02379e-37
6.53924e-38
-6.24992e-36
7.87929e-34
-2.81104e-32
-6.4422e-31
-1.1178e-29
-4.82352e-29
2.5624e-28
6.92784e-27
1.80872e-26
-9.61868e-25
-4.62657e-24
6.72343e-23
2.67018e-22
-4.61891e-21
3.54472e-20
5.52769e-19
-2.10334e-18
-2.80739e-17
-1.13628e-16
3.91129e-16
-7.62282e-15
-4.92496e-14
8.73902e-14
1.34624e-12
6.18365e-12
5.96097e-12
-1.8495e-12
-7.83865e-11
2.2379e-10
-1.06945e-10
-3.87953e-10
-5.95618e-10
1.02982e-09
1.41125e-08
1.6464e-08
-7.24733e-08
-3.94592e-07
-8.90883e-07
8.97905e-07
1.03415e-05
3.50536e-05
9.2913e-05
0.000160792
1.61869e-06
-3.69666e-12
3.0618e-40
3.80201e-11
0.000435543
-2.75324e-05
-1.26062e-10
0.000134049
6.29515e-05
2.04114e-05
3.76648e-06
-7.73484e-07
-7.55954e-07
-1.43959e-07
-7.53021e-09
1.94727e-08
5.15908e-09
3.13001e-10
-1.74477e-09
4.20758e-10
-3.59174e-11
-5.75775e-11
5.2205e-11
-6.15249e-12
-5.16331e-12
-3.49351e-12
-4.54317e-13
2.47665e-14
2.90786e-14
9.10899e-16
-1.29289e-16
8.03314e-17
1.06146e-17
1.13201e-19
-2.51306e-19
6.82572e-21
9.8277e-22
-2.10897e-22
-9.69134e-24
3.26205e-24
2.08661e-25
-1.6426e-26
-1.84945e-27
-1.13874e-28
4.20653e-29
2.75292e-30
1.90842e-31
3.99216e-33
-1.34757e-34
-5.58959e-36
9.53342e-41
1.19072e-39
6.90944e-39
-4.75857e-38
-1.71922e-36
-1.49564e-35
-2.23983e-35
1.29193e-33
1.46436e-32
4.24281e-32
-7.68141e-31
-1.23099e-29
-4.80206e-29
4.24219e-28
5.83921e-27
2.22658e-26
-1.779e-25
-2.14892e-24
-3.68949e-24
6.5272e-23
4.32965e-22
-2.12037e-22
-1.05213e-20
-1.9337e-20
1.44186e-19
1.5838e-19
-1.78609e-18
6.29646e-18
3.59016e-18
-1.73005e-16
9.02624e-16
-6.37199e-16
-1.80681e-14
1.83781e-13
-5.73569e-13
0.000173774
9.78063e-05
3.60036e-05
1.01276e-05
6.29197e-07
-9.92452e-07
-3.98797e-07
-6.76856e-08
2.06206e-08
1.45181e-08
7.47287e-10
-8.42059e-10
-2.95117e-10
-1.17247e-10
2.21721e-10
-7.29495e-11
-4.11103e-12
5.55065e-12
5.63284e-12
1.3165e-12
1.00792e-13
-4.67535e-14
-8.86031e-15
4.07051e-16
-8.99091e-17
-3.18463e-17
-2.98252e-18
4.8678e-19
4.60254e-20
-5.40185e-21
1.5899e-22
7.52273e-23
-4.08979e-24
-1.17525e-24
7.33177e-27
7.9277e-27
3.44781e-28
-3.34684e-29
-1.29744e-29
-7.33575e-31
-3.65848e-32
-1.9872e-38
3.71822e-40
3.16602e-39
4.65685e-39
-3.63445e-37
-5.91455e-36
-2.91343e-35
1.71948e-34
5.11123e-33
3.32141e-32
-7.56872e-32
-3.59772e-30
-3.07549e-29
1.22686e-29
1.7673e-27
1.45032e-26
-2.04709e-27
-7.49715e-25
-4.15237e-24
1.09894e-23
1.97817e-22
5.37546e-22
-3.54763e-21
-1.95421e-20
2.17082e-20
2.8951e-19
-6.40236e-19
-8.28666e-19
1.6617e-17
-7.5831e-17
-6.74157e-19
1.87114e-15
-1.14556e-14
3.28906e-14
2.27652e-13
-2.81811e-12
8.26078e-12
4.07309e-11
-5.316e-10
1.9919e-09
6.03971e-09
-1.04476e-07
5.89488e-07
7.83204e-09
-3.02927e-08
-3.21944e-08
-5.64745e-10
-2.32882e-37
-4.99049e-39
3.58664e-37
1.7237e-37
-7.17705e-36
6.94641e-34
0.000277452
0.982244
1.00991
1.00371
1.00638
1.01397
1.00125
1.00491
0.999712
1.00021
0.999713
0.999455
0.999923
0.999743
1.00001
0.999978
1.00002
1.00003
1
1.00001
0.999999
1
0.999999
0.999998
1
0.999999
1
1
1
1
1
1
1
1
1
1
1
1
1
1
1
1
1
1
1
1
1
1
1
1
1
1
1
1
1
1
1
1
1
1
1
1
1
1
1
1
1
1
1
1
1
1
1
1
1
1
1
1
1
1
1
1
1
1
1
1
1
1
1
1
1
1
1
1
1
1
1
1
1
1
1
1
1
1
1
1
1
1
1
1
1
1
1
1
1
1
1
1
1
1
1
1
1
1
1
1
1
1
1
1
1
1
1
1
1
1
1
1
1
1
1
1
1
1
1
1
1
1
1
1
1
1
1
1
1
1
1
1
1
1
1
1
1
1
1
1
1
1
1
1
1
1
1
1
1
1
1
1
1
1
1
1
1
1
1
1
1
1
1
1
1
9.72883e-34
-1.11632e-05
3.27043e-13
4.50805e-37
0.000501824
1.42472e-11
-3.23757e-09
2.78352e-09
1.07784e-06
6.55844e-08
-4.30315e-08
-2.53937e-08
5.86965e-09
8.24713e-09
7.47405e-09
0.000178735
0.000346698
-1.93375e-10
-8.49942e-11
1.93533e-40
3.38004e-11
3.91328e-11
0.000229699
-2.2807e-12
4.45094e-14
5.55724e-14
-1.32831e-14
9.64732e-16
2.4495e-16
-9.39652e-17
1.20113e-17
1.36966e-18
-1.19499e-18
1.47554e-19
8.41147e-20
-5.89675e-21
-5.16782e-21
-3.12236e-22
1.36644e-22
2.825e-23
-2.30745e-25
-6.79105e-25
-8.49886e-26
2.79515e-27
1.62387e-27
1.93834e-28
-3.72723e-30
-2.75627e-30
-2.93313e-31
-9.92017e-34
3.2834e-33
3.94215e-34
1.62837e-35
-2.27542e-36
-3.78768e-37
-2.19694e-38
3.27343e-40
-1.66997e-05
-2.49828e-05
-1.75858e-35
-7.14752e-37
2.45412e-38
5.34163e-37
-7.79089e-36
-2.30938e-35
-6.28348e-35
-1.15302e-34
9.01427e-34
-1.84283e-38
-5.7374e-39
-3.58708e-32
-8.46975e-31
-1.34193e-29
-5.77501e-29
4.1543e-28
9.56564e-27
2.08831e-26
-1.35598e-24
-7.15365e-24
7.12545e-23
2.8888e-22
-6.5896e-21
3.34628e-20
6.49957e-19
-3.31368e-18
-3.83187e-17
-1.48752e-16
6.19384e-16
-9.46516e-15
-7.14999e-14
6.19504e-14
1.53563e-12
8.43975e-12
9.94188e-12
2.31876e-12
-1.27209e-10
3.0623e-10
-6.82332e-11
-8.51739e-10
-3.66756e-10
1.67415e-09
2.08155e-08
1.9997e-08
-1.12483e-07
-6.19641e-07
-1.18717e-06
1.82087e-06
1.5818e-05
5.28723e-05
0.000134022
0.000188715
-1.62993e-06
-7.78345e-06
1.07711e-06
1
1
1
1
1
1
1
1
1
1
1
1
1
1
1
1
1
1
1
1
1
1
1
1
1
1
1
1
1
1
1
1
1
1
1
1
1
1
1
1
1
1
1
1
1
1
1
1
1
1
1
1
1
0.999999
1
1
1
1
0.999999
0.999999
1
1
1.00001
1
1
1
0.999984
0.999989
0.999975
0.999975
0.999989
0.999981
1.00003
1.00001
1.00007
1.00005
1.00013
1.0001
1.00018
1.00017
1.00016
1.0002
0.999984
1.00014
0.999468
0.999839
0.998453
0.999135
0.996701
0.997817
0.993439
0.995239
0.988256
0.990935
0.980732
0.98452
0.970369
0.975595
0.956498
0.963215
0.939055
0.947042
0.917952
0.927894
0.89191
0.903568
0.861172
0.874626
0.826739
0.8412
0.788315
0.804969
0.746192
0.763803
0.701606
0.72012
0.653259
0.673246
0.604251
0.624005
0.554846
0.574845
0.505085
0.525049
0.456675
0.4757
0.409417
0.427643
0.364258
0.381556
0.321337
0.337667
0.281212
0.296499
0.24428
0.258005
0.210975
0.223511
0.18013
0.191533
0.15315
0.163068
0.129233
0.137602
0.108293
0.115954
0.0899042
0.0964232
0.0741982
0.0798409
0.0607013
0.0654927
0.0494936
0.0534734
0.0401497
0.0434195
0.0321577
0.0349374
0.0257467
0.0279994
0.0203631
0.0221867
0.016126
0.0175848
0.0126627
0.0138047
0.00991653
0.0108577
0.00769568
0.00843592
0.0059244
0.00650578
0.00453987
0.00500069
0.00346437
0.00381971
0.00263026
0.00290689
0.00197658
0.00219379
0.00147106
0.00163431
0.0010968
0.00121657
0.000815952
0.000900235
3.09839e-05
-1.13942e-05
0.000255226
-0.00459306
-4.40636e-10
-5.18248e-10
-0.000867393
7.78045e-05
0.000348876
1.22709e-40
0.572277
3.75742e-40
-7.11065e-36
0.872928
0.00051209
1.42843e-09
9.19077e-11
6.45133e-07
-8.21647e-08
-4.10356e-37
1.50348e-06
5.74319e-11
0.000268424
-1.06226e-14
-8.79217e-13
1.71076e-13
-8.69552e-15
-3.67274e-15
1.0642e-15
-1.13099e-16
-1.63729e-17
8.93133e-18
-1.47376e-18
-2.77938e-19
1.68192e-19
1.99717e-20
-8.90886e-21
-1.86803e-21
1.24289e-22
7.72101e-23
6.20434e-24
-1.05648e-24
-2.93286e-25
-1.25534e-26
3.28626e-27
6.55041e-28
3.28831e-29
-5.56173e-30
-1.02906e-30
-5.62899e-32
5.42147e-33
1.29449e-33
9.80684e-35
-9.22629e-37
-1.10533e-36
-1.05526e-37
-3.00247e-39
6.53615e-12
-2.89556e-39
0.000246532
0.0179633
-0.003371
-5.26013e-37
-2.49927e-37
1.65493e-40
0.921152
2.17974e-31
1.90254e-31
2.73844e-33
-9.14808e-31
4.56684e-33
2.67427e-30
5.21026e-29
-1.35738e-28
-2.09414e-27
-2.0635e-26
1.90175e-25
4.09778e-24
-4.21567e-24
-2.4808e-22
9.27631e-22
1.40027e-20
-2.74447e-19
-1.03068e-19
1.27757e-17
1.02532e-16
-9.16136e-17
3.01651e-16
3.68236e-14
6.66452e-14
-4.62954e-13
-4.60376e-12
-9.02735e-12
-1.17705e-11
6.21946e-11
-1.72524e-11
-1.56573e-10
5.71167e-10
-2.35677e-09
8.53108e-10
8.96439e-09
2.41829e-08
-2.82321e-08
-2.38467e-07
-1.04412e-06
-5.62561e-07
6.65957e-06
3.0112e-05
8.97375e-05
0.000195338
2.92349e-30
0.000616868
0.0738136
0.000138865
0.000139723
5.36464e-05
1.56281e-05
1.41943e-06
-1.34719e-06
-6.23338e-07
-1.06236e-07
2.64606e-08
2.15846e-08
1.23506e-09
-7.37461e-10
-7.11495e-10
-9.78794e-11
3.11437e-10
-1.21841e-10
-6.2391e-13
9.26233e-12
7.61759e-12
1.61109e-12
8.06647e-14
-6.86516e-14
-1.10541e-14
6.66711e-16
-1.21879e-16
-4.18965e-17
-4.53431e-18
5.76624e-19
4.76705e-20
-7.78506e-21
1.53235e-22
8.08791e-23
-6.40075e-24
-7.70049e-40
-8.56573e-38
-1.17669e-36
-4.32884e-36
7.10373e-35
1.29246e-33
8.20292e-33
-2.58307e-32
-9.63239e-31
-7.34777e-30
8.51383e-30
6.26499e-28
4.40705e-27
-4.88106e-28
-2.76885e-25
-1.63488e-24
2.4176e-24
8.39926e-23
2.97369e-22
-1.43914e-21
-1.33298e-20
-2.14429e-21
2.2848e-19
1.67549e-19
-2.80148e-18
5.85642e-18
1.33623e-17
-2.08749e-16
8.80441e-16
3.24173e-17
-2.75951e-14
-1.09124e-07
-6.80652e-10
9.24702e-05
3.04358e-05
6.33462e-06
-8.37744e-07
-1.10448e-06
-2.34153e-07
-1.90357e-08
2.73594e-08
8.56309e-09
6.24979e-10
-2.46402e-09
5.85507e-10
-1.09441e-10
-4.87464e-11
6.79019e-11
-1.16034e-11
-7.93893e-12
-4.42701e-12
-4.64876e-13
5.37916e-14
3.81513e-14
7.19575e-16
-1.74487e-16
1.04202e-16
1.48013e-17
3.72707e-19
-2.96491e-19
1.24288e-20
1.46771e-21
-2.32494e-22
-7.99415e-24
-0.00678227
-0.0031757
-0.00995505
4.32472e-24
2.7015e-25
-2.09787e-26
-2.60061e-27
-1.94847e-28
5.23241e-29
-1.40052e-38
-3.48439e-37
-2.99538e-36
5.85916e-36
3.46098e-34
3.78173e-33
9.5486e-33
-2.21316e-31
-2.95008e-30
-1.15891e-29
1.46034e-28
1.81232e-27
7.12325e-27
-5.98421e-26
-7.93464e-25
-2.00288e-24
2.33495e-23
1.87297e-22
6.80575e-23
-5.61704e-21
-1.86643e-20
7.34115e-20
3.76612e-19
-1.00918e-18
-2.09078e-18
2.00343e-17
-6.79452e-17
-7.73987e-17
2.20193e-15
-1.18766e-14
7.97318e-15
2.90163e-13
-2.47666e-12
6.3856e-40
0.64697
-2.42877e-39
3.93953e-07
-1.16855e-07
5.64522e-40
1.65527e-13
-3.27956e-13
-3.84168e-12
9.87077e-40
-2.09001e-38
-1.59053e-24
7.38817e-27
1.05401e-26
5.31497e-28
-4.43166e-32
-3.61378e-29
-1.53012e-29
0.00045649
-8.04472e-08
0.00018871
-1.77399e-24
1.00293
1.00828
1.01211
1.00307
1.00796
1.00022
1.00185
0.999626
0.999683
0.999808
0.999572
0.999981
0.999882
1.00002
1.00002
1.00001
1.00003
1
1.00001
0.999999
0.999999
0.999999
0.999998
1
0.999999
1
1
1
1
1
1
1
1
1
1
1
1
1
1
1
1
1
1
1
1
1
1
1
1
1
1
1
1
1
1
1
1
1
1
1
1
1
1
1
1
1
1
1
1
1
1
1
1
1
1
1
1
1
1
1
1
1
1
1
1
1
1
1
1
1
1
1
1
1
1
1
1
1
1
1
1
1
1
1
1
1
1
1
1
1
1
1
1
1
1
1
1
1
1
1
1
1
1
1
1
1
1
1
1
1
1
1
1
1
1
1
1
1
1
1
1
1
1
1
1
1
1
1
1
1
1
1
1
1
1
1
1
1
1
1
1
1
1
1
1
1
1
1
1
1
1
1
1
1
1
1
1
1
1
1
1
1
1
1
0.67273
1
1.17873e-40
0.113514
-4.96108e-39
0.000427093
0.228572
5.73606e-09
-1.50637e-10
5.09911e-07
-2.28502e-08
-1.00126e-35
-4.40328e-10
-4.58029e-10
1.22949e-06
1.81553e-06
1.39007e-06
-8.17819e-39
9.18206e-12
-2.13103e-12
3.98613e-09
2.7054e-07
-1.14256e-07
1.77849e-13
-1.52852e-14
-2.10202e-15
9.86031e-16
-1.51127e-16
-5.86153e-18
9.07698e-18
-2.26917e-18
-4.03383e-19
1.94946e-19
4.06053e-20
-6.22911e-21
-2.26499e-21
-6.48287e-23
6.21645e-23
8.87363e-24
-1.39181e-25
-2.3252e-25
-2.39006e-26
6.40072e-28
4.74037e-28
4.76033e-29
-9.21844e-31
-7.06084e-31
-7.79894e-32
-6.88864e-34
6.63916e-34
9.06214e-35
4.07169e-36
-3.77045e-37
3.05842e-11
3.00247e-11
0.000314813
-0.00734108
3.40536e-38
-6.82267e-29
0.000340192
2.72377e-33
-9.85498e-31
-0.000126951
-6.98e-38
-1.49172e-29
6.23089e-29
6.01925e-29
-3.59247e-29
6.40222e-28
1.23807e-26
2.40866e-26
2.22014e-25
3.21057e-25
-1.96544e-24
-2.32376e-38
-2.04179e-38
-9.85809e-24
7.77306e-23
2.62828e-22
-9.44537e-21
2.78141e-20
7.70338e-19
-5.33456e-18
-4.93212e-17
-2.02651e-16
9.34627e-16
-1.13252e-14
-1.00875e-13
1.7831e-14
1.8467e-12
1.0938e-11
1.55214e-11
1.13244e-11
-1.99582e-10
4.10866e-10
1.79399e-11
-1.61682e-09
9.4295e-11
2.68633e-09
3.05078e-08
2.25896e-08
-1.77145e-07
-9.47505e-07
-1.54248e-06
3.36755e-06
2.43264e-05
7.76894e-05
-1.92639e-36
-9.71485e-36
2.61595e-30
2.85355e-30
-1.55506e-29
1
0.458586
1
1
1
1
1
1
1
1
1
1
1
1
1
1
1
1
1
1
1
1
1
1
1
1
1
1
1
1
1
1
1
1
1
1
1
1
1
1
1
1
1
1
1
1
1
1
1
1
1
1
1
1
1
1
0.999999
0.999999
1
1
1.00001
1.00001
0.999999
1
0.999984
0.999989
0.999977
0.999978
0.999994
0.999985
1.00003
1.00001
1.00006
1.00004
1.00011
1.00008
1.00016
1.00014
1.00015
1.00018
1.00002
1.00016
0.999631
0.999951
0.998801
0.999406
0.997202
0.998242
0.994184
0.995876
0.989387
0.992005
0.9824
0.986059
0.972837
0.977777
0.959506
0.96634
0.942819
0.950672
0.92286
0.932483
0.897234
0.90933
0.867314
0.880646
0.833658
0.84866
0.796011
0.812988
0.754906
0.772959
0.711094
0.730333
0.662826
0.683637
0.614242
0.634205
0.565337
0.586003
0.514889
0.53545
0.466525
0.485702
0.418787
0.438049
0.372702
0.391004
0.329609
0.346737
0.289039
0.305205
0.251434
0.265989
0.217789
0.230952
0.185893
0.198097
0.158231
0.16851
0.133504
0.142696
0.111868
0.119972
0.0932607
0.100178
0.0772674
0.0832923
0.063246
0.0682879
0.0517391
0.0559551
0.0418952
0.0454849
0.033575
0.0365421
0.0270338
0.0293678
0.0213531
0.0233624
0.0168681
0.0184084
0.0132568
0.0145131
0.0103784
0.0114007
0.00806618
0.00886112
0.0062498
0.00689687
0.00475744
0.00526489
0.00365661
0.00403848
0.00279023
0.00309777
0.00209856
0.00233493
0.00156182
0.00173632
0.00116687
0.00130535
0.000851054
0.000957883
0.000126296
0.000292128
0.000347145
0.000322973
0.756643
5.32808e-24
-8.80366e-24
-5.86928e-37
-2.16501e-36
-1.85907e-10
-7.56014e-10
0.000245655
0.00026034
0.000338121
0.00012865
0.000198267
6.72308e-37
-3.13552e-37
2.04788e-31
-9.39712e-31
-1.5977e-38
-1.95538e-38
-1.76966e-39
1.80551e-13
3.6425e-13
-0.00272339
-0.00153449
7.87152e-37
-6.44177e-38
-4.61536e-39
-1.91443e-35
-4.56144e-35
-3.38348e-35
0.00045886
-5.78607e-11
1.39237e-11
-2.23543e-21
-6.82674e-22
-1.82289e-05
0.000667476
2.00752e-09
2.93264e-19
1.16501e-19
1.26144e-09
9.4637e-09
2.46363e-12
-1.47585e-12
-3.77562e-18
-1.50233e-18
0.000132482
2.28081e-17
1.58086e-17
-3.92747e-12
-5.33244e-13
3.90232e-14
-1.25701e-14
1.48662e-15
1.13788e-16
-8.72865e-17
2.22194e-17
6.36033e-19
-1.43998e-18
1.14409e-19
1.26931e-19
3.81644e-21
-4.92541e-21
-4.50791e-22
7.50463e-23
2.71873e-23
1.85073e-24
-4.13531e-25
-8.77665e-26
-3.67099e-27
9.27207e-28
1.75944e-28
7.52821e-30
-1.39789e-30
-2.70223e-31
-1.52462e-32
1.01091e-33
2.81734e-34
2.27646e-35
6.13747e-38
5.21733e-11
-1.98785e-37
0.000372962
-2.1137e-16
9.30483e-14
1.10782e-13
3.02472e-14
1.5175e-13
6.72316e-16
1.27776e-15
0.000607845
0.935175
1.17475e-33
1.1358e-33
4.58614e-33
-0.00740284
5.97709e-09
0.96961
5.48375e-24
-2.06099e-37
0.80381
-3.98844e-32
-2.25866e-28
-2.65572e-27
-2.80364e-26
-5.2213e-24
2.4972e-25
0.0569193
9.01359e-23
0.202537
-2.71385e-22
1.19422e-21
2.13638e-20
-3.11862e-19
8.9126e-20
1.70877e-17
1.3568e-16
-1.2426e-16
-2.85306e-16
4.65381e-14
4.23962e-14
-4.34057e-13
-5.2975e-12
-1.38103e-11
-1.97539e-11
7.41093e-11
2.67075e-11
-2.88234e-10
6.733e-10
-3.06989e-09
1.2643e-09
1.44477e-08
3.2545e-08
-5.20654e-08
-3.8495e-07
-1.46433e-06
-3.68182e-07
1.07554e-05
4.49095e-05
7.80502e-10
-7.70529e-06
-2.00856e-05
-3.86177e-06
-4.86207e-35
7.04991e-05
3.362e-06
0.266977
7.97689e-05
2.42048e-05
2.85708e-06
-1.78116e-06
-9.68239e-07
-1.68984e-07
3.10151e-08
3.20697e-08
2.06027e-09
-4.05551e-10
-1.45929e-09
-1.93245e-11
4.28643e-10
-1.94483e-10
8.08751e-12
1.41312e-11
1.01755e-11
-9.71823e-14
-1.29772e-14
-5.72441e-37
1.71196e-35
2.82477e-34
1.48108e-33
-6.07994e-21
-8.28994e-33
-2.54577e-31
-1.84116e-30
1.93348e-30
1.61664e-28
1.17944e-27
-7.37932e-28
-7.99208e-26
-5.62757e-25
7.30617e-25
2.6896e-23
4.55339e-05
1.02593e-05
-7.81249e-07
-1.57259e-06
-3.80501e-07
-4.00504e-08
3.76565e-08
1.38694e-08
9.71729e-10
-3.28724e-09
7.42154e-10
-2.24733e-10
-1.90623e-11
8.45386e-11
-1.95773e-11
-1.21013e-11
-5.09601e-12
-0.000567361
-0.00980062
-4.56071e-13
4.904e-14
2.30752e-16
-2.3534e-16
1.35665e-16
1.95636e-17
6.95502e-19
-5.11781e-17
-3.39045e-19
1.99995e-20
1.91364e-21
-3.13308e-27
-4.75669e-32
-3.0869e-28
-4.80418e-37
2.04081e-36
8.0431e-35
7.48143e-34
1.15686e-33
-6.16636e-32
-7.5799e-31
-2.58065e-30
3.48686e-29
5.02451e-28
1.68379e-27
-1.75025e-26
-2.52666e-25
-6.8639e-25
7.38372e-24
7.52685e-23
-1.78205e-16
2.31966e-15
-1.08351e-20
2.83735e-20
8.03967e-23
-1.87177e-12
-2.56643e-20
-9.54248e-15
5.31328e-18
-6.26965e-15
-2.79404e-14
-3.62736e-18
3.82596e-19
-7.50334e-21
-1.09357e-20
1.32656e-22
1.00514e-15
-1.68228e-16
-5.35551e-17
-6.71822e-18
6.59041e-19
4.41499e-20
6.01222e-23
8.47673e-27
1.38314e-26
7.38932e-28
2.30132e-31
-2.73872e-26
-2.51337e-22
1.78296e-12
-2.2925e-05
-2.70561e-12
0.000244632
1.00755
1.00503
1.00848
1.00124
1.00397
0.999701
1.00032
0.999651
0.999415
0.999889
0.999679
1.00001
0.99995
1.00002
1.00003
1.00001
1.00002
1
1
0.999999
0.999998
0.999999
0.999999
1
1
1
1
1
1
1
1
1
1
1
1
1
1
1
1
1
1
1
1
1
1
1
1
1
1
1
1
1
1
1
1
1
1
1
1
1
1
1
1
1
1
1
1
1
1
1
1
1
1
1
1
1
1
1
1
1
1
1
1
1
1
1
1
1
1
1
1
1
1
1
1
1
1
1
1
1
1
1
1
1
1
1
1
1
1
1
1
1
1
1
1
1
1
1
1
1
1
1
1
1
1
1
1
1
1
1
1
1
1
1
1
1
1
1
1
1
1
1
1
1
1
1
1
1
1
1
1
1
1
1
1
1
1
1
1
1
1
1
1
1
1
1
1
1
1
1
1
1
1
1
1
1
1
1
1
-1.95182e-18
-3.92455e-10
-5.91501e-35
-2.91739e-13
1.72376e-35
-6.97864e-39
-3.61302e-26
-1.93672e-22
-3.18978e-08
7.00479e-24
-8.06239e-22
-7.21588e-22
-1.61003e-20
-3.31117e-21
-1.81195e-14
1.39592e-13
2.28015e-13
3.3497e-13
-2.67585e-19
1.69688e-15
9.36437e-18
4.66981e-18
1.57056e-14
9.6451e-14
-1.9776e-14
2.04489e-17
2.57847e-17
-1.2439e-20
-5.03899e-16
2.26198e-15
1.70605e-13
-3.57553e-19
7.17134e-18
3.57651e-17
4.18929e-12
-1.75648e-12
-6.96617e-19
-2.20345e-18
-4.41364e-19
-2.74041e-18
-4.51828e-18
0.000184668
5.10421e-20
-6.2171e-32
-2.02865e-21
-4.71808e-21
-2.25438e-21
1.35607e-15
6.66986e-05
3.18845e-23
8.44263e-24
4.50907e-25
-1.22361e-25
-2.30543e-26
-8.21371e-28
2.37359e-28
4.09811e-29
2.00563e-30
-2.8911e-31
-1.66625e-31
-1.74785e-31
-1.58198e-21
-5.88483e-21
-3.53028e-33
1.80994e-34
5.32634e-35
5.27527e-35
-7.62688e-11
0.568575
0.243387
0.000460853
6.06578e-14
-3.70781e-13
2.04747e-31
-2.17557e-17
-0.00767335
-3.64003e-28
-1.43788e-08
0.000114569
0.000190895
1.03048e-36
-2.84092e-22
7.16132e-37
-4.38011e-32
2.18054e-31
1.69319e-26
-3.37344e-26
5.38486e-24
0.0253249
8.32811e-23
9.74827e-23
-2.54173e-22
-3.13103e-27
1.84698e-26
1.18546e-19
1.42658e-19
1.77439e-21
-1.4178e-20
1.7301e-22
2.77303e-21
1.58808e-20
-3.93345e-19
3.20895e-19
2.42864e-17
1.72467e-16
-1.61995e-16
1.49346e-15
4.29316e-36
3.20913e-36
-1.20528e-14
6.47015e-14
-5.0988e-14
-3.85998e-13
-1.90632e-12
-4.34158e-12
-1.43598e-12
-1.37179e-13
1.47033e-13
-6.22771e-12
-1.98255e-11
-3.32688e-11
8.70819e-11
1.15018e-10
-4.63027e-10
7.74451e-10
-3.893e-09
1.70184e-09
2.29256e-08
4.36429e-08
-9.34498e-08
-6.16294e-07
-2.06595e-06
9.51147e-08
1.7067e-05
3.70239e-05
6.75223e-05
5.09083e-09
-8.96843e-08
1
1
1
1
1
1
1
1
1
1
1
1
1
1
1
1
1
1
1
1
1
1
1
1
1
1
1
1
1
1
1
1
1
1
1
1
1
1
1
1
1
1
1
1
1
1
1
1
1
1
1
1
1
0.999999
0.999999
1
1
1.00001
1.00001
0.999998
1
0.999984
0.999989
0.999981
0.999981
0.999997
0.999989
1.00002
1.00001
1.00005
1.00003
1.00009
1.00006
1.00013
1.00011
1.00015
1.00017
1.00008
1.00019
0.999812
1.00007
0.99916
0.999674
0.997731
0.998723
0.994963
0.996598
0.990661
0.99316
0.984323
0.98779
0.975496
0.980127
0.963185
0.969787
0.947263
0.955282
0.928211
0.937581
0.903707
0.916057
0.874526
0.88832
0.841862
0.857525
0.805676
0.822303
0.765955
0.784327
0.722142
0.741778
0.674574
0.696061
0.625971
0.646772
0.577635
0.598596
0.526812