/*--------------------------------*- C++ -*----------------------------------*\
  =========                 |
  \\      /  F ield         | OpenFOAM: The Open Source CFD Toolbox
   \\    /   O peration     | Website:  https://openfoam.org
    \\  /    A nd           | Version:  7
     \\/     M anipulation  |
\*---------------------------------------------------------------------------*/
FoamFile
{
    version     2.0;
    format      ascii;
    class       volScalarField;
    location    "0.6";
    object      T;
}
// * * * * * * * * * * * * * * * * * * * * * * * * * * * * * * * * * * * * * //

dimensions      [0 0 0 1 0 0 0];

internalField   nonuniform List<scalar> 
23686
(
0.509941
0.910643
0.997281
0.975489
1.00718
1.01727
1.00286
1.00909
1.00026
1.00127
0.999751
0.999405
0.999891
0.999662
0.999995
0.99997
1.00001
1.00003
1.00001
1.00002
1
1
0.999999
0.999998
1
0.999999
1
1
1
1
1
1
1
1
1
1
1
1
1
1
1
1
1
1
1
1
1
1
1
1
1
1
1
1
1
1
1
1
1
1
1
1
1
1
1
1
1
1
1
1
1
1
1
1
1
1
1
1
1
1
1
1
1
1
1
1
1
1
1
1
1
1
1
1
1
1
1
1
1
1
1
1
1
1
1
1
1
1
1
1
1
1
1
1
1
1
1
1
1
1
1
1
1
1
1
1
1
1
1
1
1
1
1
1
1
1
1
1
1
1
1
1
1
1
1
1
1
1
1
1
1
1
1
1
1
1
1
1
1
1
1
1
1
1
1
1
1
1
1
1
1
1
1
1
1
1
1
1
1
1
1
1
1
1
1
1
1
1
1
1
1
1
1
1
1
1
1
1
1
0.11164
-0.00310636
-0.000317299
5.52315e-05
-1.03085e-05
1.75243e-07
1.75516e-07
-3.22223e-08
2.01358e-09
3.75092e-10
-1.68617e-10
1.44711e-11
1.37044e-12
-8.03372e-13
9.03198e-14
6.02346e-15
-3.55369e-15
5.08361e-16
-2.22496e-17
-2.08181e-17
5.61343e-18
-9.69711e-21
-2.92822e-19
3.63241e-20
2.51025e-20
4.8875e-22
-9.25622e-22
-1.22508e-22
1.19226e-23
4.44765e-24
3.50751e-25
-3.79899e-26
-1.02543e-26
-5.91142e-28
9.37018e-29
1.69666e-29
1.23048e-30
-9.68433e-32
-2.28636e-32
-1.79377e-33
-3.45244e-36
1.74649e-35
1.75993e-36
5.3694e-38
-9.78137e-39
-1.38771e-39
-9.08426e-41
-1.71507e-42
5.36893e-43
-1.07923e-59
2.02391e-43
-2.42133e-42
-1.44924e-40
2.54559e-39
1.01593e-38
1.89e-37
1.36163e-35
-5.47179e-34
-1.60353e-32
-2.71207e-31
-2.00926e-30
1.53764e-29
2.32115e-28
2.85084e-28
-3.82277e-26
-1.85769e-25
1.44257e-24
-7.71038e-24
-2.85242e-22
6.67836e-22
-1.33575e-21
-3.09228e-19
-1.38264e-18
2.42792e-18
3.90867e-17
-2.25733e-16
4.07372e-16
1.50499e-15
-9.16466e-14
-6.28733e-13
-1.13027e-12
7.62919e-13
9.84376e-13
6.92892e-12
-1.99623e-11
3.40614e-11
-1.47196e-10
1.99286e-10
7.52415e-10
2.07967e-10
-6.46041e-09
-1.82412e-08
-5.07576e-08
5.82864e-08
7.03565e-07
2.37552e-06
6.10703e-06
1.16213e-05
1.56379e-05
2.19113e-05
1
1
1
1
1
1
1
1
1
1
1
1
1
1
1
1
1
1
1
1
1
1
1
1
1
1
1
1
1
1
1
1
1
1
1
1
1
1
1
1
1
1
1
1
1
1
0.999999
1
1
1
1
1
0.999999
1
0.999999
0.999999
1
1
1.00001
1
0.999999
1
0.999986
0.999989
0.999978
0.999982
0.999977
0.999981
0.999997
0.999993
1.00006
1.00004
1.00017
1.00013
1.0003
1.00024
1.00031
1.00028
1.00007
1.00014
0.99944
0.99966
0.998121
0.99858
0.995689
0.996525
0.99164
0.992933
0.985176
0.987087
0.97566
0.978586
0.962643
0.966691
0.945817
0.950869
0.924506
0.93098
0.898012
0.90619
0.86637
0.875776
0.831152
0.841391
0.791339
0.80313
0.747143
0.760345
0.699519
0.713545
0.650341
0.664562
0.599655
0.614562
0.546753
0.562218
0.495477
0.510278
0.444794
0.459454
0.395057
0.409319
0.349505
0.36245
0.306676
0.318941
0.265247
0.276945
0.228827
0.239006
0.195959
0.205195
0.165915
0.174459
0.139147
0.146586
0.116572
0.122804
0.0965727
0.102075
0.079467
0.0841805
0.0645156
0.0685819
0.0524404
0.0557367
0.0423851
0.0451686
0.0336673
0.0360328
0.0267971
0.0286597
0.0211436
0.0226737
0.0165068
0.017748
0.0128801
0.0138485
0.0100177
0.0107945
0.00764277
0.00827262
0.00586362
0.00633409
0.00447113
0.00483972
0.00337135
0.00366247
0.00255292
0.00277457
0.00189612
0.00207033
0.00141712
0.00154486
0.00104675
0.00114453
0.000763645
0.000837393
0.000562192
0.000615299
0.00041303
0.000452937
0.000297251
0.000327388
0.000214985
0.00023641
0.000155639
0.000171613
0.000111531
0.000124101
7.88369e-05
8.85536e-05
5.63552e-05
6.34662e-05
3.7418e-05
2.53059e-05
4.21976e-05
1.87249e-43
1.81675e-05
0.0139069
-0.00200416
0.000101508
-3.29739e-06
-3.45346e-06
5.32192e-07
-1.8672e-08
-8.67424e-09
1.98582e-09
-2.29604e-10
-3.01238e-11
1.01852e-11
-1.26366e-12
-1.01701e-13
5.2563e-14
-6.18704e-15
-2.9527e-16
2.22068e-16
-5.74328e-17
2.47269e-18
2.26836e-18
-5.28481e-19
-5.31216e-20
4.36417e-20
8.45959e-21
-1.30206e-21
-4.09459e-22
-1.3356e-23
9.97367e-24
1.49677e-24
1.34873e-26
-2.49414e-26
-3.15686e-27
4.4607e-29
4.58921e-29
5.40041e-30
7.43705e-32
-5.96768e-32
-7.18188e-33
-3.14085e-34
2.9418e-35
6.34818e-36
3.88931e-37
-8.08483e-39
-4.3022e-39
-3.85653e-40
-1.7625e-41
6.95681e-43
-0.00133342
2.49826e-43
2.13498e-05
-4.23931e-43
-1.52619e-41
1.22708e-39
-2.0365e-38
-6.42098e-38
-3.07355e-37
-3.94429e-36
3.69853e-33
6.24658e-32
1.10637e-30
-2.18921e-30
-5.10142e-29
-6.1076e-28
5.96253e-27
1.20954e-25
-7.15103e-26
-3.09287e-24
7.69384e-23
4.98074e-22
-4.62597e-21
7.56017e-20
7.49167e-19
1.75595e-18
-1.97004e-17
7.12776e-18
4.24279e-16
-2.93733e-15
2.12383e-14
2.65004e-13
1.11046e-12
2.94969e-13
1.34773e-13
-8.28491e-12
2.33755e-11
-2.54327e-11
-4.32175e-11
1.7681e-11
4.11617e-10
1.19341e-09
-1.27073e-09
-1.3349e-08
-3.50602e-08
-3.18586e-08
3.00946e-07
1.395e-06
3.86735e-06
9.01844e-06
1.4804e-05
0.000148593
0.0642368
-2.77272e-05
0.453368
0.000140418
1.57756e-06
-1.07378e-05
1.40764e-06
-1.25929e-08
-2.71605e-08
5.36429e-09
-5.33273e-10
-1.06623e-10
2.86263e-11
-3.09052e-12
-3.85514e-13
1.52741e-13
-1.57427e-14
-1.35288e-15
6.08087e-16
-1.51003e-16
5.44151e-18
6.4086e-18
-1.71653e-18
-1.55027e-19
1.44756e-19
2.85358e-20
-4.23847e-21
-1.41186e-21
-5.93123e-23
3.37649e-23
5.35262e-24
1.25994e-25
-8.58552e-26
-1.15846e-26
-4.59909e-29
1.63619e-28
1.97695e-29
5.36955e-31
-1.90174e-31
-2.64896e-32
-1.37081e-33
7.98388e-35
2.29809e-35
1.60977e-36
-4.98651e-39
-1.44791e-38
-1.5116e-39
-7.45513e-41
1.14587e-42
7.02601e-43
-2.01643e-41
9.75593e-40
-1.98356e-38
-2.84591e-38
4.21941e-37
8.0372e-37
3.03007e-33
4.78298e-32
8.50323e-31
-3.24186e-30
-4.4498e-29
-5.13806e-28
5.25142e-27
9.47297e-26
-9.17021e-26
-1.658e-24
7.15289e-23
4.33344e-22
-3.60122e-21
6.95601e-20
5.91337e-19
1.14201e-18
-1.81429e-17
1.57846e-19
2.5104e-16
-3.36503e-15
1.51962e-14
2.09058e-13
9.33557e-13
2.55862e-13
2.44918e-13
-7.63966e-12
2.25986e-11
-2.45863e-11
-5.00051e-11
1.93131e-11
4.74769e-10
1.25855e-09
-1.72155e-09
-1.52923e-08
-4.02969e-08
-3.06229e-08
3.59774e-07
1.65083e-06
4.5485e-06
1.04828e-05
1.69012e-05
-3.46245e-43
-1.13217e-07
5.32847e-07
-8.5898e-08
3.92801e-09
1.22828e-09
-4.57854e-10
3.28283e-11
4.88845e-12
-2.18019e-12
2.26069e-13
2.26888e-14
-9.55203e-15
1.18908e-15
-4.35044e-17
-5.9693e-17
1.50897e-17
-3.15149e-19
-9.36271e-19
1.22108e-19
8.06024e-20
2.21218e-21
-3.17622e-21
-4.34945e-22
3.57126e-23
1.60113e-23
1.35108e-24
-1.10157e-25
-3.68041e-26
-2.49482e-27
2.65553e-28
6.25819e-29
4.92095e-30
-2.23684e-31
-8.19277e-32
-7.20261e-33
-9.40651e-35
5.33827e-35
6.8206e-36
2.59186e-37
-2.61524e-38
-5.22086e-39
-3.71419e-40
-9.72824e-42
1.47834e-42
-6.30163e-41
2.85236e-39
1.28708e-39
1.14661e-37
9.57307e-36
-5.07841e-34
-1.29063e-32
-2.08137e-31
-1.39819e-30
1.58706e-29
2.01323e-28
8.86738e-29
-3.26464e-26
-1.37099e-25
1.09631e-24
-9.90365e-24
-2.50049e-22
5.19833e-22
-3.15358e-21
-2.7359e-19
-1.03513e-18
2.55501e-18
3.5284e-17
-1.65128e-16
6.90593e-16
2.82794e-15
-7.35625e-14
-5.09669e-13
-9.45111e-13
6.48063e-13
8.85374e-13
6.72434e-12
-1.85034e-11
2.70927e-11
-1.48813e-10
2.28841e-10
8.60915e-10
2.47712e-10
-7.49116e-09
-2.20993e-08
-5.56594e-08
7.84446e-08
8.41047e-07
2.80046e-06
7.15701e-06
1.35841e-05
1.81782e-05
-0.00528114
-0.00556021
-3.01012e-42
0.594883
-0.00160947
0.942444
1.00339
0.979133
1.00791
1.01325
1.00265
1.00761
0.999944
1.00096
0.999656
0.999356
0.999885
0.999649
1
0.999959
1.00002
1.00003
1.00001
1.00002
1
1
0.999999
0.999998
1
0.999999
1
1
1
1
1
1
1
1
1
1
1
1
1
1
1
1
1
1
1
1
1
1
1
1
1
1
1
1
1
1
1
1
1
1
1
1
1
1
1
1
1
1
1
1
1
1
1
1
1
1
1
1
1
1
1
1
1
1
1
1
1
1
1
1
1
1
1
1
1
1
1
1
1
1
1
1
1
1
1
1
1
1
1
1
1
1
1
1
1
1
1
1
1
1
1
1
1
1
1
1
1
1
1
1
1
1
1
1
1
1
1
1
1
1
1
1
1
1
1
1
1
1
1
1
1
1
1
1
1
1
1
1
1
1
1
1
1
1
1
1
1
1
1
1
1
1
1
1
1
1
1
1
1
1
1
1
1
1
1
1
1
1
1
1
1
1
1
1
1
-5.94534e-42
0.00261077
0.000236229
0.235597
-1.05639e-05
-3.43467e-06
7.57138e-07
-5.52954e-08
-7.56086e-09
3.24049e-09
-3.78284e-10
-2.40971e-11
1.56863e-11
-2.15838e-12
-8.21405e-14
7.23642e-14
-1.10301e-14
4.57631e-16
3.44691e-16
-1.04939e-16
6.91841e-18
3.82835e-18
-1.34285e-18
-2.42725e-19
6.13348e-20
1.84397e-20
-5.91666e-22
-6.75955e-22
-7.4416e-23
6.98836e-24
2.45907e-24
1.73679e-25
-1.68925e-26
-5.32876e-27
-3.19625e-28
2.26127e-29
7.50705e-30
6.31114e-31
-1.0535e-32
-6.87252e-33
-7.27327e-34
-1.6951e-35
4.51205e-36
6.96611e-37
3.9502e-38
-9.01111e-40
-3.13677e-40
-3.20807e-41
-1.29621e-42
5.56963e-41
-0.00445074
-0.00527208
-0.00421271
1.20761e-43
2.76309e-05
3.89349e-05
-1.31586e-05
-1.12008e-05
0.517419
1.94166e-39
3.70907e-39
2.27743e-37
8.88165e-36
-4.72533e-34
-1.42689e-32
-2.09278e-31
-2.19824e-30
2.05794e-29
2.3906e-28
5.37153e-28
-3.65949e-26
-2.21045e-25
1.20206e-24
-9.56683e-24
-3.21239e-22
1.50467e-22
1.46152e-21
-3.54043e-19
-1.51157e-18
1.48041e-18
5.45758e-17
-1.91857e-16
6.09626e-16
6.57055e-15
-9.38975e-14
-7.19378e-13
-1.74038e-12
7.46519e-13
6.37916e-13
1.50417e-11
-3.85953e-11
4.10174e-11
-1.9137e-10
3.82179e-10
1.21381e-09
-3.67113e-10
-1.22127e-08
-3.18505e-08
-6.89107e-08
1.75839e-07
1.30429e-06
4.12857e-06
1.02533e-05
1.86303e-05
2.19635e-05
2.84131e-05
0.0528654
0.185682
0.025489
7.61732e-05
0.000473589
6.62957e-05
7.89362e-06
1
1
1
1
1
1
1
1
1
1
1
1
1
1
1
1
1
1
1
1
1
1
1
1
1
1
1
1
1
1
1
1
1
1
1
1
1
1
1
1
1
1
1
1
1
1
1
1
1
1
0.999999
0.999999
1
0.999999
1
1
1.00001
1.00001
0.999995
0.999999
0.999985
0.999989
0.999982
0.999984
0.999985
0.999981
1.00001
0.999989
1.00006
1.00002
1.00017
1.00012
1.00027
1.00024
1.00025
1.0003
1.00002
1.00021
0.999412
0.999849
0.998107
0.998926
0.995679
0.99708
0.991523
0.993773
0.98476
0.988153
0.975266
0.979827
0.962548
0.968885
0.945424
0.953489
0.924017
0.933701
0.898124
0.909732
0.866563
0.880828
0.830183
0.845593
0.790971
0.807538
0.747539
0.765808
0.700023
0.719839
0.650228
0.670481
0.599968
0.619992
0.548075
0.569083
0.496041
0.516427
0.445631
0.46552
0.39617
0.41541
0.350076
0.36773
0.307071
0.323066
0.266451
0.281897
0.229321
0.243185
0.196168
0.208312
0.166873
0.1776
0.140115
0.150002
0.116604
0.124874
0.0969648
0.104108
0.0797627
0.0858495
0.0649149
0.0701879
0.0526751
0.0569669
0.0426374
0.0461223
0.0340137
0.0370365
0.0269689
0.0293758
0.0212566
0.0231908
0.0166456
0.0182223
0.0129602
0.0142093
0.0100802
0.0110394
0.00773953
0.0085291
0.00590646
0.00651729
0.00448391
0.00494493
0.00341424
0.00377401
0.00258071
0.00284859
0.00193012
0.00214497
0.00143536
0.00159538
0.00106033
0.00118179
0.000776228
0.000868488
0.000570472
0.000637338
0.000418688
0.000466791
0.000303568
0.000340666
0.00021743
0.000244285
0.000157261
0.000175993
0.000115201
0.000128459
8.47276e-05
9.5623e-05
0.759785
-7.02591e-43
-0.000422185
0.806072
-7.11109e-42
0.000213928
-2.51624e-41
-8.10271e-43
6.51626e-07
1.63027e-07
-4.58153e-08
4.84781e-09
4.0911e-10
-2.17873e-10
2.76974e-11
1.32946e-12
-1.08948e-12
1.4645e-13
3.32085e-15
-4.47244e-15
1.05113e-15
-6.91895e-17
-3.28036e-17
1.03043e-17
-4.95767e-19
-7.79246e-19
9.03275e-21
4.43915e-20
4.0386e-21
-1.16285e-21
-2.73764e-22
-5.37486e-24
5.44466e-24
7.9196e-25
7.88649e-27
-1.19086e-26
-1.62343e-27
-1.21444e-29
1.57761e-29
2.58701e-30
8.55318e-32
-1.39302e-32
-2.47886e-33
-1.59567e-34
6.13174e-36
1.94499e-36
1.94371e-37
4.08966e-39
-7.79399e-40
-1.06307e-40
-7.08689e-42
1.02837e-41
-2.0881e-07
1.29057e-39
-2.75191e-38
-5.47592e-40
1.57462e-36
-2.92909e-35
2.8465e-33
4.9842e-32
9.53555e-31
-3.00201e-30
-4.70485e-29
-7.23061e-28
4.31633e-27
1.18549e-25
2.45976e-26
-2.8533e-24
7.53722e-23
6.98039e-22
-4.72531e-21
7.24673e-20
7.8507e-19
2.0523e-18
-2.33762e-17
-3.05251e-17
4.3934e-16
-4.52697e-15
1.31569e-14
2.67591e-13
1.45793e-12
9.25725e-13
4.15824e-14
-9.99551e-12
2.6943e-11
-2.30944e-11
-1.03388e-10
1.19019e-10
7.01812e-10
1.49137e-09
-3.50328e-09
-2.24751e-08
-5.75496e-08
-1.06498e-08
6.02175e-07
2.48485e-06
6.53947e-06
1.46221e-05
2.29578e-05
1.61869e-06
-3.69194e-12
-3.22719e-41
3.80198e-11
6.10721e-05
-2.75324e-05
-1.26054e-10
2.0375e-05
1.09435e-05
4.35771e-06
1.31407e-06
1.55193e-07
-8.01629e-08
-3.43908e-08
-1.19736e-08
3.03116e-11
1.3116e-09
3.78189e-10
-2.13912e-10
4.04187e-11
-3.47136e-11
1.28738e-11
1.1377e-12
7.05665e-13
-1.56462e-12
-7.3172e-13
-9.73798e-14
6.66212e-15
1.1074e-15
-2.04413e-16
5.31882e-17
3.46993e-18
-1.3789e-18
-3.83507e-19
-3.40118e-21
5.0707e-22
-3.51431e-22
-1.54185e-23
1.45677e-24
-1.7603e-25
-4.13517e-26
1.73439e-28
2.71265e-28
2.42489e-29
-1.7159e-30
-2.18607e-31
-1.52294e-32
-6.01829e-34
1.13375e-35
1.31989e-37
-5.67684e-42
-1.0152e-40
-9.65964e-40
-4.07351e-40
1.56145e-37
2.0522e-36
1.17181e-35
-9.2954e-35
-2.32319e-33
-1.87159e-32
9.02517e-33
2.2647e-30
2.02901e-29
4.46152e-29
-1.26465e-27
-1.46206e-26
-3.29627e-26
6.35874e-25
6.944e-24
1.12548e-23
-2.52431e-22
-1.86536e-21
4.72206e-22
5.38737e-20
1.35394e-19
-7.59228e-19
-2.98806e-18
1.06385e-17
2.83627e-18
-2.13037e-16
1.02097e-15
-5.9104e-16
-1.84712e-14
1.85552e-13
-5.75741e-13
2.51253e-05
1.57186e-05
6.90909e-06
2.55289e-06
5.87861e-07
-2.97475e-08
-6.26892e-08
-2.34813e-08
-3.05904e-09
1.76458e-09
7.23028e-10
8.63843e-11
-9.94897e-11
-2.83537e-11
3.14654e-11
-1.12584e-11
2.8776e-13
7.1252e-13
1.4181e-12
2.7402e-13
1.62635e-14
-5.38916e-15
3.32584e-16
-1.35448e-17
-2.61861e-17
1.54119e-18
7.95227e-19
9.30274e-20
-4.86201e-21
6.51356e-22
9.30145e-23
-1.98586e-24
-1.26065e-25
1.24035e-25
6.22421e-27
-7.13949e-28
-5.41832e-29
-5.47178e-30
9.92101e-31
5.33261e-32
3.48542e-33
1.26316e-39
-2.68178e-41
-3.28422e-40
-1.89219e-39
2.29787e-38
6.57833e-37
5.52962e-36
6.9355e-36
-5.9168e-34
-7.46829e-33
-3.11296e-32
4.12442e-31
7.90278e-30
4.08774e-29
-1.42554e-28
-5.32548e-27
-3.00959e-26
7.87761e-26
2.47476e-24
1.30114e-23
-4.06133e-23
-7.79504e-22
-2.5813e-21
1.49937e-20
1.08323e-19
-5.93724e-20
-2.04041e-18
8.10175e-20
2.22111e-17
-9.63678e-17
-8.71772e-18
2.08603e-15
-1.18316e-14
3.3439e-14
2.28688e-13
-2.82091e-12
8.27116e-12
4.07205e-11
-5.31573e-10
1.99188e-09
6.03976e-09
-1.04476e-07
5.89488e-07
7.83207e-09
-3.02927e-08
-3.21944e-08
-5.64744e-10
-6.6556e-39
4.10132e-39
-3.08832e-38
-5.24616e-39
1.67601e-36
-1.08108e-35
0.000277452
0.982244
1.00991
1.00371
1.00638
1.01397
1.00125
1.00491
0.999712
1.00021
0.999713
0.999455
0.999923
0.999743
1.00001
0.999978
1.00002
1.00003
1
1.00001
0.999999
1
0.999999
0.999998
1
0.999999
1
1
1
1
1
1
1
1
1
1
1
1
1
1
1
1
1
1
1
1
1
1
1
1
1
1
1
1
1
1
1
1
1
1
1
1
1
1
1
1
1
1
1
1
1
1
1
1
1
1
1
1
1
1
1
1
1
1
1
1
1
1
1
1
1
1
1
1
1
1
1
1
1
1
1
1
1
1
1
1
1
1
1
1
1
1
1
1
1
1
1
1
1
1
1
1
1
1
1
1
1
1
1
1
1
1
1
1
1
1
1
1
1
1
1
1
1
1
1
1
1
1
1
1
1
1
1
1
1
1
1
1
1
1
1
1
1
1
1
1
1
1
1
1
1
1
1
1
1
1
1
1
1
1
1
1
1
1
1
1
1
1
1
1
1
-4.60828e-35
-1.11632e-05
3.01734e-13
-4.25457e-38
7.11234e-05
1.42595e-11
-3.2375e-09
2.78346e-09
1.07784e-06
6.55845e-08
-4.30316e-08
-2.53936e-08
5.8697e-09
8.24721e-09
7.474e-09
2.70817e-05
4.80866e-05
-1.93358e-10
-8.50223e-11
-2.78868e-41
3.37885e-11
3.91428e-11
3.32269e-05
-2.28443e-12
4.38616e-14
5.70264e-14
-1.39498e-14
1.14772e-15
3.05158e-16
-1.19975e-16
1.64273e-17
5.80409e-18
-1.77759e-18
-4.23023e-19
5.0065e-20
2.44321e-20
1.34402e-21
-5.43722e-22
-1.02009e-22
-1.31944e-24
1.83847e-24
2.40968e-25
3.35966e-27
-3.70087e-27
-4.24962e-28
-1.09118e-29
4.31083e-30
5.86265e-31
2.49706e-32
-3.22001e-33
-5.94723e-34
-3.82732e-35
4.30178e-37
3.88639e-37
3.76822e-38
1.23324e-39
-1.12878e-40
-1.66997e-05
-2.49828e-05
3.39864e-36
5.81691e-38
2.76225e-39
-4.76515e-38
3.16372e-37
3.86497e-36
7.07578e-36
1.08228e-35
-2.46772e-35
1.38863e-39
5.82009e-39
3.32883e-33
5.22953e-32
9.84699e-31
-5.44985e-30
-5.56533e-29
-9.20413e-28
5.03646e-27
1.46998e-25
-1.39136e-26
-2.84287e-24
1.02537e-22
9.70395e-22
-5.79257e-21
9.37884e-20
1.0302e-18
2.48542e-18
-2.93324e-17
-6.07866e-17
5.02115e-16
-7.17702e-15
8.58572e-15
3.31162e-13
2.04016e-12
1.91767e-12
7.85813e-14
-1.42055e-11
3.19772e-11
-1.76782e-11
-1.8879e-10
2.68011e-10
1.04917e-09
1.94578e-09
-6.06707e-09
-3.33784e-08
-8.77049e-08
1.6876e-08
9.81144e-07
3.76524e-06
9.92007e-06
2.13759e-05
2.91893e-05
-1.62993e-06
-7.78345e-06
1.07711e-06
1
1
1
1
1
1
1
1
1
1
1
1
1
1
1
1
1
1
1
1
1
1
1
1
1
1
1
1
1
1
1
1
1
1
1
1
1
1
1
1
1
1
1
1
1
1
1
1
0.999999
0.999999
1
0.999999
1
1
1
1
0.999994
0.999998
0.999988
0.999991
0.999988
0.999989
0.999988
0.999984
1
0.999983
1.00005
1.00001
1.00014
1.0001
1.00023
1.00021
1.00023
1.00029
1.00007
1.00024
0.999576
0.999978
0.99845
0.999212
0.996227
0.997541
0.992312
0.994491
0.986021
0.989306
0.977173
0.981733
0.965263
0.971322
0.949001
0.956727
0.928274
0.9378
0.903007
0.914473
0.872866
0.886613
0.837373
0.852986
0.798257
0.814692
0.75583
0.774211
0.708941
0.728407
0.659607
0.679786
0.608933
0.628801
0.557576
0.578407
0.505855
0.526101
0.455518
0.475198
0.405405
0.424961
0.358758
0.37661
0.314819
0.331657
0.273541
0.289232
0.236342
0.250278
0.202328
0.214831
0.171881
0.182994
0.144713
0.154563
0.120958
0.129614
0.100352
0.107675
0.0828057
0.0891242
0.0674933
0.0729121
0.0549006
0.05935
0.0442829
0.047849
0.0354967
0.0385828
0.0281794
0.0306665
0.0222443
0.0242901
0.0174073
0.0190578
0.013601
0.014903
0.0105768
0.0115954
0.00810828
0.00893366
0.00622926
0.0068663
0.00472069
0.00521328
0.00359188
0.00396786
0.00270681
0.00298864
0.00203703
0.0022587
0.00151847
0.00168523
0.00112233
0.00124797
0.000827217
0.000922297
0.00060805
0.000678386
0.000444723
0.000497238
0.000321924
0.000361568
0.000231658
0.000260232
0.000167472
0.000187757
0.00012108
0.000134986
3.09839e-05
-1.13942e-05
3.55691e-05
-0.00459306
-4.4059e-10
-5.18214e-10
-0.000867393
7.78045e-05
4.90953e-05
-1.29296e-41
0.572277
-4.26371e-41
1.68134e-37
0.872928
7.32875e-05
1.42837e-09
9.1889e-11
6.45133e-07
-8.21647e-08
-4.55898e-39
1.50348e-06
5.74045e-11
3.81399e-05
-1.61259e-15
-8.84906e-13
1.73464e-13
-8.91308e-15
-3.87927e-15
1.26121e-15
-1.34849e-16
-2.42558e-17
1.66556e-17
-5.37552e-19
-1.13412e-18
-6.04912e-20
4.79314e-20
8.23783e-21
-4.59047e-22
-2.88709e-22
-2.46896e-23
2.70815e-24
7.59775e-25
5.65097e-26
-5.77877e-27
-1.48899e-27
-9.68474e-29
5.18226e-30
1.85547e-30
1.48403e-31
-1.46842e-33
-1.61972e-33
-1.72758e-34
-5.64059e-36
7.51394e-37
1.36673e-37
8.44735e-39
-2.4708e-41
6.55242e-12
1.94772e-40
3.64225e-05
0.0179633
-0.003371
4.53467e-38
-2.41011e-38
-1.73692e-41
0.921152
-1.47151e-32
-1.38111e-32
-5.20963e-34
5.0635e-32
-7.0257e-34
-1.66849e-31
-2.33469e-30
3.08265e-29
3.04352e-28
6.93778e-28
-4.23612e-26
-2.30159e-25
1.51034e-24
-1.46931e-23
-4.27977e-22
-1.04499e-22
2.20144e-21
-4.61291e-19
-1.80998e-18
2.06757e-18
7.84307e-17
-1.88049e-16
1.03775e-15
1.30109e-14
-1.04363e-13
-9.59002e-13
-2.65215e-12
4.35964e-13
6.2469e-13
2.47813e-11
-6.21606e-11
4.95942e-11
-2.40172e-10
5.98013e-10
1.79662e-09
-1.06458e-09
-1.90134e-08
-4.93509e-08
-9.15055e-08
3.245e-07
2.03916e-06
6.24194e-06
1.5363e-05
0.000195338
-1.65805e-31
8.94145e-05
0.0738136
0.000138865
2.281e-05
1.03778e-05
3.88889e-06
9.60088e-07
-1.13088e-08
-9.5673e-08
-3.51199e-08
-5.34875e-09
2.38524e-09
1.08622e-09
2.22221e-10
-1.8505e-10
-2.66934e-11
3.91159e-11
-1.61266e-11
4.28243e-13
1.56599e-12
1.96343e-12
3.59893e-13
1.2312e-14
-8.41939e-15
3.84181e-16
-3.62286e-17
-3.42132e-17
1.74242e-18
1.06196e-18
1.22273e-19
-6.25019e-21
9.16285e-22
1.34338e-22
-1.949e-24
-2.36468e-25
-2.05569e-40
5.86351e-39
1.28391e-37
9.98192e-37
-1.72017e-36
-1.44718e-34
-1.75337e-33
-6.2926e-33
1.07239e-31
1.8511e-30
9.69985e-30
-6.16009e-29
-1.43421e-27
-9.12105e-27
3.13739e-26
7.48468e-25
4.4262e-24
-1.39111e-23
-3.11612e-22
-1.13569e-21
6.27665e-21
6.55849e-20
5.47741e-20
-1.27332e-18
-3.46742e-18
1.78056e-17
2.17512e-17
-2.62356e-16
1.05734e-15
2.68982e-16
-2.88186e-14
-1.09124e-07
-6.80612e-10
1.6237e-05
6.52301e-06
2.07989e-06
2.94342e-07
-1.08835e-07
-5.30189e-08
-1.88497e-08
-4.20526e-10
1.95472e-09
6.0289e-10
-2.80676e-10
5.01889e-11
-5.82993e-11
2.2292e-11
1.24653e-12
4.79548e-13
-2.47066e-12
-9.65699e-13
-1.11366e-13
1.33013e-14
1.68155e-15
-2.19255e-16
7.83143e-17
4.55584e-18
-1.61914e-18
-4.98108e-19
-3.68778e-21
4.40327e-22
-4.5419e-22
-2.22107e-23
1.79262e-24
-0.00678227
-0.0031757
-0.00995505
-1.7206e-25
-4.87865e-26
2.2081e-28
3.34127e-28
3.59293e-29
-1.561e-30
4.52372e-40
3.1036e-38
4.15845e-37
1.50676e-36
-2.622e-35
-5.66907e-34
-4.35706e-33
7.69074e-33
5.06819e-31
5.1773e-30
3.964e-30
-3.44159e-28
-4.26341e-27
-8.30231e-27
2.01318e-25
2.16164e-24
4.13983e-24
-8.69132e-23
-7.43578e-22
-1.54343e-22
2.59064e-20
1.07764e-19
-2.95127e-19
-2.86774e-18
1.57033e-18
3.7091e-17
-8.7954e-17
-9.28088e-17
2.60235e-15
-1.24444e-14
7.99033e-15
2.93417e-13
-2.48652e-12
-7.51815e-41
0.64697
1.47401e-40
3.93953e-07
-1.16855e-07
-6.5026e-41
1.68463e-13
-3.30872e-13
-3.84458e-12
-1.54379e-40
1.45472e-39
1.48179e-25
7.65551e-27
-8.75529e-28
-6.59097e-29
3.86461e-33
-9.04426e-30
9.97493e-31
0.00045649
-8.04474e-08
3.05981e-05
1.70342e-25
1.00293
1.00828
1.01211
1.00307
1.00796
1.00022
1.00185
0.999626
0.999683
0.999808
0.999572
0.999981
0.999882
1.00002
1.00002
1.00001
1.00003
1
1.00001
0.999999
0.999999
0.999999
0.999998
1
0.999999
1
1
1
1
1
1
1
1
1
1
1
1
1
1
1
1
1
1
1
1
1
1
1
1
1
1
1
1
1
1
1
1
1
1
1
1
1
1
1
1
1
1
1
1
1
1
1
1
1
1
1
1
1
1
1
1
1
1
1
1
1
1
1
1
1
1
1
1
1
1
1
1
1
1
1
1
1
1
1
1
1
1
1
1
1
1
1
1
1
1
1
1
1
1
1
1
1
1
1
1
1
1
1
1
1
1
1
1
1
1
1
1
1
1
1
1
1
1
1
1
1
1
1
1
1
1
1
1
1
1
1
1
1
1
1
1
1
1
1
1
1
1
1
1
1
1
1
1
1
1
1
1
1
1
1
1
1
1
1
0.606789
1
-2.72894e-41
0.113514
3.56726e-40
6.07355e-05
0.228572
5.73593e-09
-1.5068e-10
5.09911e-07
-2.28503e-08
5.45372e-37
-4.40267e-10
-4.5805e-10
1.22949e-06
1.81553e-06
1.39007e-06
5.74245e-40
9.20726e-12
-2.14423e-12
3.98607e-09
2.7054e-07
-1.14256e-07
1.81913e-13
-1.66813e-14
-2.27403e-15
1.22474e-15
-2.01905e-16
-2.17666e-17
2.26963e-17
7.33438e-19
-1.29061e-18
-1.70728e-19
3.13095e-20
9.48384e-21
3.20935e-22
-1.9037e-22
-3.15159e-23
6.14366e-26
4.99266e-25
7.12378e-26
5.03885e-28
-8.81016e-28
-1.13558e-28
-2.92368e-30
9.1488e-31
1.37058e-31
7.10928e-33
-6.08242e-34
-1.24271e-34
-9.24882e-36
-4.31862e-38
6.27216e-38
3.05883e-11
3.00619e-11
4.66353e-05
-0.00734108
3.60513e-39
-9.67294e-30
4.86843e-05
-5.98702e-34
4.31711e-32
-0.000126951
6.75104e-39
8.5577e-31
-2.06731e-30
-9.09665e-31
-1.4702e-29
-6.82126e-29
-1.08781e-27
6.27022e-27
-4.70212e-26
-5.53683e-26
1.59882e-25
1.89477e-39
1.58243e-39
-1.81751e-25
-3.44118e-24
1.578e-22
1.32194e-21
-7.21695e-21
1.22896e-19
1.40655e-18
2.69097e-18
-3.82315e-17
-9.81993e-17
5.81121e-16
-1.09523e-14
-1.31079e-15
4.37403e-13
2.71166e-12
3.42963e-12
4.56703e-13
-2.00271e-11
3.59739e-11
-4.36726e-12
-3.23283e-10
5.09663e-10
1.56457e-09
2.49138e-09
-1.0098e-08
-5.02266e-08
-1.30275e-07
7.97634e-08
1.57648e-06
5.75282e-06
1.47121e-05
1.63352e-37
4.56639e-37
-7.92654e-32
-6.63877e-32
7.334e-31
1
0.439008
1
1
1
1
1
1
1
1
1
1
1
1
1
1
1
1
1
1
1
1
1
1
1
1
1
1
1
1
1
1
1
1
1
1
1
1
1
1
1
1
1
1
1
1
0.999999
0.999999
1
1
1
1
1
1
0.999995
0.999998
0.999992
0.999995
0.999993
0.999994
0.999987
0.999985
0.99999
0.999976
1.00003
0.999997
1.00011
1.00008
1.00021
1.00019
1.00025
1.00028
1.00016
1.00029
0.99977
1.00011
0.998804
0.999481
0.996786
0.998049
0.993159
0.995248
0.987465
0.990579
0.979395
0.983779
0.968017
0.973916
0.952536
0.959993
0.932718
0.942298
0.908393
0.919848
0.879686
0.893133
0.844683
0.860932
0.806155
0.822729
0.765108
0.783342
0.718248
0.738751
0.669103
0.68949
0.618586
0.639572
0.567298
0.588934
0.515903
0.537074
0.465804
0.486543
0.415054
0.435713
0.368019
0.38638
0.323843
0.341556
0.281437
0.297823
0.243787
0.258001
0.208906
0.222284
0.177351
0.189264
0.14978
0.160241
0.12548
0.134744
0.10421
0.11208
0.0862903
0.0930046
0.0702932
0.0761547
0.0572216
0.0618829
0.0461248
0.0500779
0.0369421
0.0402381
0.0294616
0.032133
0.0233692
0.0255749
0.0182948
0.020049
0.014349
0.0157428
0.0111262
0.0122575
0.00853308
0.00942249
0.00659962
0.00726672
0.00499339
0.00554033
0.00378541
0.00418585
0.00285434
0.00316675
0.00214642
0.00238921
0.00160163
0.00178246
0.0011936
0.00133428
0.000872862
0.000978448
0.000646931
0.00072317
0.000475816
0.000534863
0.000345121
0.000388625
0.000248705
0.000279568
0.000180437
0.000204092
0.000127943
0.000145627
0.000126296
0.000292128
0.000347145
0.000322973
0.756643
-2.18049e-25
-4.84385e-25
-1.57724e-38
1.74707e-37
-1.85859e-10
-7.55916e-10
3.79354e-05
4.10861e-05
5.11189e-05
2.22947e-05
3.28982e-05
-6.6572e-38
-4.92056e-38
-1.24976e-32
2.93158e-32
1.47563e-39
1.67974e-39
7.31743e-39
1.82205e-13
3.7076e-13
-0.00272339
-0.00153449
-7.4315e-38
5.78778e-39
3.08737e-40
3.87905e-36
7.00363e-36
5.92144e-36
6.62263e-05
-5.79491e-11
1.38699e-11
-1.48784e-22
-2.20269e-22
-1.82289e-05
9.76546e-05
2.00739e-09
-9.80353e-20
-2.12995e-21
1.26156e-09
9.46362e-09
2.47824e-12
-1.47323e-12
-2.06858e-18
-1.45251e-18
2.35874e-05
2.95931e-17
2.43662e-17
-3.94531e-12
-5.41276e-13
3.99786e-14
-1.37722e-14
1.80543e-15
1.54679e-16
-1.36339e-16
4.98306e-17
9.04488e-18
-2.79196e-18
-6.08947e-19
4.431e-20
2.09734e-20
2.79041e-21
-4.01074e-22
-9.06382e-23
-6.803e-24
8.89702e-25
2.17673e-25
1.55274e-26
-1.47082e-27
-3.63844e-28
-2.64531e-29
1.02974e-30
4.15471e-31
3.7296e-32
2.14996e-34
-3.27149e-34
-3.83792e-35
-1.57482e-36
1.02376e-37
5.21546e-11
2.35396e-38
5.43437e-05
-3.26462e-16
2.31983e-14
2.25632e-14
2.93334e-14
1.547e-13
8.18559e-16
1.67455e-15
8.92267e-05
0.935175
-6.57532e-35
-4.73952e-35
-7.87528e-34
-0.00740284
5.97687e-09
0.96961
-1.27659e-25
2.19673e-38
0.80381
3.47371e-33
4.62597e-29
3.30899e-28
7.6062e-28
2.43453e-24
1.92864e-24
0.0569193
-2.35277e-24
0.202537
-2.15049e-23
-4.81515e-22
-3.69096e-22
4.00818e-21
-5.65652e-19
-2.01933e-18
2.99364e-18
1.10444e-16
-1.73682e-16
1.53115e-15
3.05002e-15
-1.12362e-13
-1.15772e-12
-4.17032e-12
-3.40371e-13
3.17349e-13
3.99267e-11
-9.67636e-11
4.29025e-11
-2.69205e-10
9.0319e-10
2.6068e-09
-2.29521e-09
-2.91664e-08
-7.61914e-08
-1.11424e-07
5.74721e-07
3.16968e-06
9.35517e-06
7.8049e-10
-7.70529e-06
-2.00856e-05
-3.86177e-06
6.67784e-36
7.04991e-05
3.362e-06
0.266977
1.55246e-05
5.95771e-06
1.56553e-06
4.29839e-08
-1.42862e-07
-5.3091e-08
-9.46621e-09
3.10209e-09
1.63123e-09
4.55603e-10
-3.25084e-10
-1.63886e-11
4.71981e-11
-2.27071e-11
9.14694e-13
2.88892e-12
2.68631e-12
-1.26906e-14
4.47593e-16
1.46291e-37
-7.92692e-37
-3.33121e-35
-3.45364e-34
1.98625e-21
-8.64734e-34
2.92001e-32
4.24927e-31
1.95921e-30
-1.73228e-29
-3.53338e-28
-2.1501e-27
8.45697e-27
2.17444e-25
1.23756e-24
-3.28074e-24
9.79014e-06
3.22862e-06
5.33047e-07
-1.40449e-07
-8.19314e-08
-2.93523e-08
-1.36373e-09
2.86514e-09
9.18021e-10
-3.32384e-10
4.96827e-11
-9.2778e-11
3.71928e-11
1.09868e-12
-1.73418e-13
-3.89044e-12
-1.16376e-12
-0.000567361
-0.00980062
-1.25119e-13
2.38626e-15
-2.33333e-16
1.10663e-16
6.21203e-18
-1.75421e-18
-6.229e-19
-1.02323e-16
-2.76109e-21
3.38478e-22
-5.39352e-22
3.50572e-28
3.86379e-33
5.25256e-29
6.568e-38
1.53165e-37
-6.87047e-36
-1.18126e-34
-8.01046e-34
3.58084e-33
1.23013e-31
1.07645e-30
3.55652e-31
-9.53222e-29
-9.82596e-28
-1.99199e-27
5.95019e-26
5.66597e-25
1.352e-24
-2.68481e-23
-2.66494e-16
2.82866e-15
1.22745e-21
4.88746e-20
-2.36417e-22
-1.88926e-12
-1.6438e-18
-1.03777e-14
2.66608e-17
-8.21532e-15
-3.05502e-14
5.8332e-18
-5.98881e-19
2.51983e-20
9.34203e-21
-9.36192e-23
-6.82232e-17
-4.50751e-17
1.70603e-18
1.37223e-18
1.54529e-19
-8.05139e-21
1.80402e-22
8.57748e-27
-1.04182e-27
-7.02795e-29
-1.24822e-32
9.16327e-29
-3.17252e-23
4.42088e-13
-2.2925e-05
-2.71928e-12
0.000244632
1.00755
1.00503
1.00848
1.00124
1.00397
0.999701
1.00032
0.999651
0.999415
0.999889
0.999679
1.00001
0.99995
1.00002
1.00003
1.00001
1.00002
1
1
0.999999
0.999998
0.999999
0.999999
1
1
1
1
1
1
1
1
1
1
1
1
1
1
1
1
1
1
1
1
1
1
1
1
1
1
1
1
1
1
1
1
1
1
1
1
1
1
1
1
1
1
1
1
1
1
1
1
1
1
1
1
1
1
1
1
1
1
1
1
1
1
1
1
1
1
1
1
1
1
1
1
1
1
1
1
1
1
1
1
1
1
1
1
1
1
1
1
1
1
1
1
1
1
1
1
1
1
1
1
1
1
1
1
1
1
1
1
1
1
1
1
1
1
1
1
1
1
1
1
1
1
1
1
1
1
1
1
1
1
1
1
1
1
1
1
1
1
1
1
1
1
1
1
1
1
1
1
1
1
1
1
1
1
1
1
-6.94183e-19
-3.92265e-10
1.00142e-35
-2.97485e-13
-1.68058e-36
5.43912e-40
4.96611e-28
-8.70079e-23
-3.18978e-08
-1.66393e-25
2.71059e-23
-1.01739e-22
-6.15678e-19
2.88624e-21
-2.08816e-14
1.45119e-13
2.35047e-13
3.46944e-13
1.19624e-17
2.12194e-15
2.54956e-17
3.26314e-17
1.51957e-14
9.84805e-14
-2.42332e-14
2.72698e-17
5.46694e-17
1.63327e-21
-5.62255e-16
2.93391e-15
3.67194e-14
7.48109e-21
-2.58883e-17
2.73662e-17
4.219e-12
-1.75871e-12
-1.06552e-18
-1.90264e-18
-1.4537e-18
2.84869e-18
6.80603e-19
3.24934e-05
8.30484e-21
8.65963e-33
6.88433e-22
2.51349e-21
4.17626e-22
-1.52576e-16
1.39612e-05
-2.66855e-23
-1.4238e-24
2.34366e-25
5.50147e-26
3.65081e-27
-3.18181e-28
-7.94627e-29
-5.72789e-30
1.95673e-31
8.14503e-32
3.03562e-32
2.79343e-32
7.86271e-21
8.41279e-21
1.32215e-34
-5.60556e-35
-6.86168e-36
-5.91407e-36
-7.63813e-11
0.568575
0.243387
6.78691e-05
2.24605e-15
-1.15582e-13
-9.36582e-33
-1.98045e-17
-0.00767335
7.09168e-29
-1.43786e-08
2.18814e-05
3.4429e-05
-1.08864e-37
-2.96569e-23
-1.66934e-38
3.70928e-33
-7.77211e-33
-1.30941e-27
-4.85147e-28
2.9743e-24
0.0253249
-4.67554e-24
-3.45791e-24
-4.19385e-23
3.34476e-28
-1.1921e-27
-4.59356e-20
-1.37589e-20
-6.42478e-22
1.49109e-21
2.00505e-22
-7.21047e-22
-9.45336e-21
-5.82989e-22
-7.16782e-19
-2.38484e-18
4.37652e-18
1.53629e-16
-1.10537e-16
-3.02692e-37
-1.62435e-37
6.93735e-16
3.43173e-15
-1.92566e-14
-1.2833e-13
-1.92916e-12
-4.37913e-12
-1.45345e-12
-1.59963e-14
3.79561e-14
-1.438e-12
-6.21782e-12
-2.04462e-12
-5.03926e-13
6.42574e-11
-1.4132e-10
2.00028e-11
-2.5586e-10
1.32879e-09
3.74442e-09
-4.55803e-09
-4.55501e-08
-1.1722e-07
-1.30719e-07
9.90714e-07
4.89549e-06
8.72539e-06
1.45765e-05
5.09053e-09
-8.96844e-08
1
1
1
1
1
1
1
1
1
1
1
1
1
1
1
1
1
1
1
1
1
1
1
1
1
1
1
1
1
1
1
1
1
1
1
1
1
1
1
1
1
1
1
0.999999
0.999999
1
1
1
1
1
1
0.999996
0.999999
0.999996
0.999998
0.999996
0.999997
0.999984
0.999984
0.999979
0.999969
1.00001
0.999983
1.00009
1.00006
1.0002
1.00016
1.00026
1.00027
1.00023
1.00032