/*--------------------------------*- C++ -*----------------------------------*\
  =========                 |
  \\      /  F ield         | OpenFOAM: The Open Source CFD Toolbox
   \\    /   O peration     | Website:  https://openfoam.org
    \\  /    A nd           | Version:  7
     \\/     M anipulation  |
\*---------------------------------------------------------------------------*/
FoamFile
{
    version     2.0;
    format      ascii;
    class       volScalarField;
    location    "0.24";
    object      T;
}
// * * * * * * * * * * * * * * * * * * * * * * * * * * * * * * * * * * * * * //

dimensions      [0 0 0 1 0 0 0];

internalField   nonuniform List<scalar> 
46572
(
0
0
0
0
0
0
0
0
0
0
0
0
0
0
0
0
0
0
0
0
0
0
0
0
0
0
0
0
0
0
0
0
0
0
0
0
0
0
0
0
0
0
0
0
0
0
0
0
0
0
0
0
0
0
0
0
0
0
0
0
0
0
0
0
0
0
0
0
0
0
0
0
0
0
0
0
0
0
0
0
0
0
0
0
0
0
0
0
0
0
0
0
0
0
0
0
0
0
0
0
0
0
0
0
0
0
0
0
0
0
0
0
0
0
0
0
0
0
0
0
0
0
0
0
0
0
0
0
0
0
0
0
0
0
0
0
0
0
0
0
0
0
0
0
0
0
0
0
0
0
0
0
0
0
0
0
0
0
0
0
0
0
0
0
0
0
0
0
0
0
0
0
0
0
0
0
0
0
0
0
0
0
0
0
0
0
0
0
0
0
0
0
0
0
0
0
0
0
0
0
0
0
0
0
0
0
0
0
0
0
0
0
0
0
0
0
0
0
0
0
0
0
0
0
0
0
0
0
0
0
0
0
0
0
0
0
0
0
0
0
0
0
0
0
0
0
0
0
0
0
0
0
0
0
0
0
0
0
0
0
0
0
0
0
0
0
0
0
0
0
0
0
0
0
0
0
0
0
0
0
0
0
0
0
0
0
0
0
0
0
0
0
0
0
0
0
0
0
0
0
0
0
0
0
0
0
0
0
0
0
0
0
0
0
0
0
0
0
0
0
0
0
0
0
0
8.06741e-142
-6.40368e-143
9.5485e-139
9.82508e-139
8.85027e-139
6.51872e-139
2.66693e-136
3.14666e-136
6.56826e-136
8.06659e-136
4.19307e-136
5.13946e-136
6.91168e-136
-1.13868e-135
2.38776e-134
2.63588e-134
6.62167e-134
7.03584e-134
5.23922e-133
4.83124e-133
4.09939e-133
2.05732e-133
4.86379e-132
5.75668e-132
3.12485e-132
3.69193e-132
2.06122e-132
2.20465e-132
2.76833e-132
3.20644e-132
1.8055e-132
2.0885e-132
2.22028e-132
1.02212e-132
3.021e-130
3.56231e-130
1.8672e-130
2.12612e-130
1.38482e-129
-4.41301e-129
3.00206e-128
2.71542e-128
3.91912e-128
4.20201e-128
4.8395e-128
3.54597e-128
5.16544e-128
-2.11214e-128
7.24853e-127
8.55748e-127
1.08716e-126
-1.76791e-126
4.85241e-126
3.89513e-126
3.31745e-126
2.68901e-126
2.57007e-126
1.73681e-127
1.36168e-125
-4.54122e-125
3.23548e-124
2.58674e-124
2.22417e-123
2.46207e-123
1.12207e-122
1.18709e-122
7.49923e-123
7.93797e-123
5.0404e-123
5.22832e-123
1.87489e-122
1.72417e-122
3.33664e-122
3.76915e-122
2.16908e-122
2.43082e-122
1.60174e-122
9.91612e-123
3.16864e-122
2.81741e-122
2.7502e-122
2.03048e-122
1.99185e-122
1.25935e-122
3.13945e-122
-4.26562e-122
1.22278e-120
1.10223e-120
2.67999e-119
2.1663e-119
1.85563e-119
1.51158e-119
1.32035e-119
1.10282e-119
9.48675e-120
7.46795e-120
8.04073e-119
6.64097e-119
1.60526e-118
1.75796e-118
1.04423e-118
1.13117e-118
8.28972e-119
2.43545e-119
2.30186e-118
1.71717e-118
2.84425e-118
2.75319e-118
3.59063e-118
2.51342e-118
4.09612e-118
-4.23053e-118
9.41472e-118
5.06244e-118
2.92122e-117
1.86845e-117
2.08318e-117
1.41563e-117
2.97526e-117
2.97712e-117
2.00784e-117
1.99682e-117
1.45937e-117
1.12135e-117
8.28553e-117
9.09572e-117
5.29696e-117
5.71322e-117
4.96998e-117
-1.97686e-117
1.49801e-116
9.51099e-117
1.80514e-116
1.63769e-116
1.61555e-116
1.41796e-116
1.24296e-116
4.38685e-117
1.53113e-116
1.0848e-116
1.38517e-116
-3.14887e-117
1.96582e-116
1.12659e-116
2.07378e-116
1.74265e-116
1.44607e-116
1.11459e-116
1.30913e-116
1.16644e-116
1.5138e-116
1.49392e-116
5.29527e-116
-2.91043e-116
2.21186e-115
2.12435e-115
1.62939e-115
9.45566e-116
1.22142e-115
7.21115e-116
8.1312e-115
5.87395e-115
1.54381e-114
1.63629e-114
1.01027e-114
1.05811e-114
7.05741e-115
5.7634e-115
9.10999e-115
8.38011e-115
1.17623e-114
1.00998e-114
3.54235e-114
2.45417e-114
2.85096e-114
4.69074e-115
2.15228e-114
6.45676e-115
1.72974e-114
2.42671e-116
1.35963e-114
2.21461e-115
2.93181e-114
1.8854e-114
2.13936e-114
1.44545e-114
8.23796e-114
6.52924e-114
1.45573e-113
1.55875e-113
9.5516e-114
1.01135e-113
6.75671e-114
5.03416e-114
8.82076e-114
7.463e-114
8.81162e-114
8.65913e-114
6.8275e-114
6.28136e-114
5.09041e-114
3.25845e-114
1.26084e-113
1.32454e-113
8.22499e-114
8.55112e-114
6.74027e-114
7.12586e-114
1.20662e-113
1.26707e-113
8.09246e-114
8.47993e-114
5.4956e-114
5.18663e-114
1.22246e-113
1.36702e-113
7.67739e-114
8.50234e-114
5.09634e-114
4.58224e-114
5.00032e-114
4.69796e-114
4.37821e-114
4.46561e-114
3.07713e-114
3.1213e-114
2.14554e-114
1.9e-114
3.7636e-114
4.23372e-114
2.54416e-114
2.37653e-114
2.46387e-114
2.41481e-114
1.75292e-114
1.7593e-114
1.1479e-114
1.12088e-114
7.46424e-115
7.09762e-115
1.09635e-114
1.15134e-114
3.22355e-114
2.69267e-114
2.21376e-114
1.81701e-114
1.51036e-114
1.26207e-114
1.03664e-114
8.76161e-115
2.31559e-114
2.04627e-114
4.03624e-114
4.43655e-114
2.62696e-114
2.84061e-114
6.78148e-113
-2.26943e-112
7.86013e-113
-1.14289e-112
-4.34662e-112
6.78937e-113
2.96538e-105
-3.98654e-108
1.49479e-100
8.20999e-101
1.19404e-96
1.49164e-96
7.61531e-97
9.50205e-97
1.32071e-95
-6.63531e-21
-3.65523e-21
-3.23872e-24
3.31239e-25
-2.69853e-27
3.60175e-29
-1.92742e-32
-6.57537e-33
3.94271e-35
1.04123e-36
-1.00923e-38
-7.89874e-41
8.17021e-43
3.51177e-45
-4.50116e-47
4.61516e-50
4.93531e-52
6.62681e-55
-1.56411e-56
-3.37807e-58
-1.43143e-60
3.80451e-63
2.23049e-65
1.55415e-67
1.41586e-69
5.9236e-72
7.50237e-75
2.52314e-78
1.16268e-82
1.98638e-88
-8.17038e-21
0.138772
0.168102
0.182471
0.187413
0.185707
0.174437
0.153708
0.120293
0.0777264
0.0344537
-0.00590851
-0.0382104
-0.0563979
-0.0632079
-0.060848
-0.0569038
-0.0480672
-0.0377272
-0.0286411
-0.0212373
-0.0153206
-0.0105855
-0.00690119
-0.00460581
-0.00292734
-0.00181748
-0.00111153
-0.000682625
-0.000404102
-0.000237104
-0.000135469
-7.92657e-05
-4.51873e-05
-2.49837e-05
-1.37269e-05
-7.58655e-06
-4.19088e-06
-2.25135e-06
-1.17932e-06
-6.27687e-07
-3.24978e-07
-1.67364e-07
-8.60869e-08
-4.26685e-08
-2.19555e-08
-1.1058e-08
-5.48836e-09
-2.73368e-09
-1.34562e-09
-6.48587e-10
-3.12364e-10
-1.51939e-10
-7.39108e-11
-3.50788e-11
-1.63398e-11
-7.73955e-12
-3.58098e-12
-1.64677e-12
-7.62322e-13
-3.41499e-13
-1.58113e-13
-7.17206e-14
-3.21547e-14
-1.43633e-14
-6.45492e-15
-2.90528e-15
-1.28325e-15
-5.53467e-16
-2.44781e-16
-1.05734e-16
-4.52619e-17
-1.93151e-17
-8.34031e-18
-3.51441e-18
-1.48572e-18
-6.17302e-19
-2.61785e-19
-1.08758e-19
-4.60259e-20
-1.6281e-20
-9.9147e-21
7.10676e-05
-0.000145496
3.15513e-05
-4.86164e-05
-0.00154909
-0.000751348
0.00922043
0.0318895
0.06513
0.10454
0.12203
0.0555236
-0.000102028
-6.713e-05
-4.25361e-05
-4.31188e-05
-4.91208e-05
-5.99085e-05
-5.75684e-05
-5.60478e-05
-3.37719e-05
-0.000116105
9.54017e-05
6.3456e-05
0.00021123
-0.000287499
-0.000163994
-0.000220001
-0.000283118
-1.15971e-05
-0.00019183
0.000182484
2.21632e-05
7.16691e-05
0.000117047
-0.000476692
-0.000264429
-0.00124337
-0.00102122
-0.00163309
-0.00213883
-0.000936954
-0.0030926
0.00171026
-0.00335409
0.00701443
-0.00226421
0.015323
0.000447235
0.0264477
0.00529937
0.0410959
0.0111159
0.0573694
0.0191738
0.0753036
0.0267903
0.0952246
0.0352337
0.118717
0.0413116
0.123028
0.0526204
0.13939
0.0538836
0.151071
0.0576602
0.159554
0.056228
0.166134
0.0549066
0.16884
0.0505614
0.170341
0.0436418
0.168716
0.0368352
0.167783
0.0280544
0.162838
0.0211363
0.156961
0.0112384
0.149504
0.000742813
0.138542
-0.00795575
0.125701
-0.0195363
0.109744
-0.0311291
0.0902613
-0.0435227
0.0722206
-0.0581993
0.0489613
-0.0704405
0.0301521
-0.0835779
0.0112564
-0.0945993
-0.00744958
-0.104234
-0.0214757
-0.110441
-0.0351457
-0.115974
-0.0476947
-0.119373
-0.055661
-0.119766
-0.0608645
-0.117852
-0.0625959
-0.113667
-0.0639241
-0.108719
-0.0633153
-0.101777
-0.0593016
-0.0935008
-0.0572165
-0.0858087
-0.0519357
-0.0768444
-0.0468577
-0.0682256
-0.0428034
-0.0606814
-0.0383045
-0.0533364
-0.033039
-0.0459144
-0.0291111
-0.0397007
-0.0250828
-0.0338687
-0.0214519
-0.0286799
-0.0180642
-0.0240241
-0.0151594
-0.0201132
-0.0127318
-0.0166982
-0.0104171
-0.0136871
-0.00874706
-0.0112996
-0.0070329
-0.00912967
-0.00567685
-0.00735078
-0.00463314
-0.00596171
-0.00375324
-0.00480205
-0.0029579
-0.00379859
-0.00239598
-0.00303849
-0.00187226
-0.00237962
-0.0014585
-0.00185919
-0.00115552
-0.00146298
-0.00088509
-0.00112388
-0.000693141
-0.000878585
-0.000544525
-0.000687683
-0.000421076
-0.000531538
-0.000324881
-0.000409141
-0.000247193
-0.000312212
-0.000190183
-0.000239604
-0.000146115
-0.000183347
-0.000109466
-0.000137912
-8.39865e-05
-0.00010518
-6.25916e-05
-7.86141e-05
-4.67345e-05
-5.87167e-05
-3.53785e-05
-4.42235e-05
-2.59117e-05
-3.25441e-05
-1.9455e-05
-2.43984e-05
-1.46387e-05
-1.83315e-05
-1.08854e-05
-1.36227e-05
-8.07464e-06
-1.00943e-05
-5.94972e-06
-7.43969e-06
-4.38156e-06
-5.4884e-06
-3.23881e-06
-4.04756e-06
-2.35715e-06
-2.95119e-06
-1.7481e-06
-2.17666e-06
-1.25958e-06
-1.57407e-06
-9.11975e-07
-1.13953e-06
-6.66825e-07
-8.32243e-07
-4.86714e-07
-6.06499e-07
-3.47516e-07
-4.34382e-07
-2.53434e-07
-3.15682e-07
-1.82656e-07
-2.27464e-07
-1.31421e-07
-1.63638e-07
-9.40179e-08
-1.17203e-07
-6.73495e-08
-8.40008e-08
-4.84367e-08
-6.03194e-08
-3.43742e-08
-4.28461e-08
-2.47484e-08
-3.07402e-08
-1.73482e-08
-2.16112e-08
-1.22122e-08
-1.52209e-08
-8.69462e-09
-1.08239e-08
-6.18106e-09
-7.68745e-09
-4.3069e-09
-5.36815e-09
-3.06216e-09
-3.80816e-09
-2.12769e-09
-2.65119e-09
-1.48064e-09
-1.84615e-09
-1.04334e-09
-1.29769e-09
-7.15829e-10
-8.92746e-10
-5.02024e-10
-6.25803e-10
-3.53016e-10
-4.39868e-10
-2.45896e-10
-3.06375e-10
-1.70924e-10
-2.12887e-10
-1.17969e-10
-1.47052e-10
-8.18866e-11
-1.02123e-10
-5.69723e-11
-7.09509e-11
-3.8816e-11
-4.84527e-11
-2.70404e-11
-3.36481e-11
-1.83925e-11
-2.29379e-11
-1.25575e-11
-1.56644e-11
-8.66945e-12
-1.0808e-11
-5.93841e-12
-7.40288e-12
-4.01571e-12
-5.01269e-12
-2.76532e-12
-3.44693e-12
-1.88629e-12
-2.35156e-12
-1.28559e-12
-1.60219e-12
-8.72414e-13
-1.08795e-12
-5.91939e-13
-7.3854e-13
-4.03411e-13
-5.0283e-13
-2.71374e-13
-3.38542e-13
-1.852e-13
-2.30703e-13
-1.23798e-13
-1.54418e-13
-8.29506e-14
-1.03491e-13
-5.60726e-14
-6.99172e-14
-3.79009e-14
-4.72384e-14
-2.51752e-14
-3.14203e-14
-1.701e-14
-2.1208e-14
-1.1379e-14
-1.41895e-14
-7.60393e-15
-9.48107e-15
-5.06696e-15
-6.31873e-15
-3.37381e-15
-4.21107e-15
-2.2557e-15
-2.81312e-15
-1.48476e-15
-1.85276e-15
-9.73199e-16
-1.2146e-15
-6.5092e-16
-8.12095e-16
-4.32333e-16
-5.39391e-16
-2.87116e-16
-3.58239e-16
-1.90738e-16
-2.37879e-16
-1.24462e-16
-1.55397e-16
-8.26888e-17
-1.03105e-16
-5.38748e-17
-6.72202e-17
-3.51003e-17
-4.38314e-17
-2.31241e-17
-2.8852e-17
-1.49043e-17
-1.86108e-17
-9.78969e-18
-1.22235e-17
-6.44892e-18
-8.04995e-18
-4.21405e-18
-5.26152e-18
-2.74899e-18
-3.43201e-18
-1.78968e-18
-2.23488e-18
-1.16247e-18
-1.45219e-18
-7.58974e-19
-9.47369e-19
-4.87577e-19
-6.09112e-19
-3.18945e-19
-3.98131e-19
-2.06165e-19
-2.57469e-19
-1.33661e-19
-1.66849e-19
-8.67275e-20
-1.08145e-19
-5.53739e-20
-6.90136e-20
-3.45559e-20
-4.31414e-20
-2.25375e-20
-2.81691e-20
-1.55045e-20
-1.00831e-20
-1.91584e-20
2.47487e-43
-8.93853e-41
-5.29944e-38
1.17156e-34
5.96861e-34
-2.21189e-30
1.31398e-28
-1.02119e-26
3.12532e-25
-4.40965e-23
-1.54139e-21
-1.76441e-22
-3.32976e-21
0
0
0
0
0
0
0
0
0
0
0
0
0
-1.39266e-39
-9.24412e-37
-2.40465e-35
3.86741e-34
9.32644e-34
1.26608e-31
2.45683e-30
3.78228e-29
2.03071e-29
1.32502e-28
9.23457e-29
5.04811e-29
3.96379e-29
1.9601e-29
1.08354e-29
1.60231e-29
1.0032e-29
1.84629e-29
2.31897e-29
2.00626e-29
1.95343e-29
2.3948e-29
2.40781e-29
3.35976e-29
2.30815e-29
2.65027e-29
1.67667e-29
1.1962e-29
9.23908e-30
6.60779e-30
4.40888e-30
3.86609e-30
2.86338e-30
1.68018e-30
1.13022e-30
6.19556e-31
2.5384e-31
3.62602e-33
-1.32889e-31
-2.43295e-31
-1.65829e-31
-1.60261e-31
-9.18868e-32
-5.85312e-32
-3.44673e-32
-1.84233e-32
-9.27101e-33
-4.09622e-33
-1.85486e-33
-8.47365e-34
-3.4245e-34
-1.21073e-34
3.77872e-35
3.45173e-35
2.14322e-35
2.60113e-35
1.42445e-35
1.07142e-35
5.41967e-36
2.99439e-36
1.56623e-36
8.13139e-37
4.149e-37
1.8822e-37
8.52434e-38
4.15237e-38
1.78646e-38
5.63712e-39
-8.58308e-40
-8.77736e-40
-7.18049e-40
-6.45697e-40
-3.66429e-40
-2.37501e-40
-1.20508e-40
-5.45414e-41
-3.16143e-41
-1.58647e-41
-8.37514e-42
-3.68451e-42
-1.65079e-42
-6.86044e-43
-2.9774e-43
-1.28855e-43
-3.71353e-44
-1.27288e-44
-6.19845e-44
1.65076e-95
1.03508e-24
9.39809e-25
-1.14386e-21
-4.65199e-22
-1.44506e-23
8.71406e-25
-4.27135e-26
2.51786e-29
5.93303e-30
-4.22286e-32
-4.56987e-34
1.14508e-35
-2.26938e-38
-1.36431e-39
2.1221e-42
8.03302e-44
-1.80093e-46
-2.16741e-48
7.82597e-51
2.50043e-53
-4.28689e-56
-2.86024e-57
-2.81368e-59
-1.55926e-62
3.77922e-64
1.61842e-66
1.5627e-68
1.04142e-70
2.38089e-73
1.731e-76
2.2213e-80
2.62927e-85
4.74189e-05
2.60086e-92
0.154525
0.177442
0.185971
0.187829
0.18049
0.165576
0.13852
0.101722
0.0577893
0.0107468
-0.0216823
-0.045542
-0.0594435
-0.0610315
-0.0596709
-0.0516415
-0.0417721
-0.0339047
-0.0248502
-0.0181256
-0.0125489
-0.00836013
-0.00564302
-0.0035993
-0.00227018
-0.00144762
-0.000864127
-0.000515128
-0.000306202
-0.000176141
-0.000103699
-5.92414e-05
-3.29343e-05
-1.88015e-05
-1.0212e-05
-5.65071e-06
-3.03339e-06
-1.59965e-06
-8.65285e-07
-4.43992e-07
-2.28878e-07
-1.18784e-07
-6.00997e-08
-3.064e-08
-1.56691e-08
-7.68222e-09
-3.90572e-09
-1.89989e-09
-9.17936e-10
-4.55586e-10
-2.17926e-10
-1.06157e-10
-5.03702e-11
-2.35521e-11
-1.12981e-11
-5.18212e-12
-2.39408e-12
-1.11091e-12
-5.06488e-13
-2.31844e-13
-1.07121e-13
-4.73408e-14
-2.17374e-14
-9.61894e-15
-4.33574e-15
-1.9133e-15
-8.29828e-16
-3.67719e-16
-1.59043e-16
-6.83609e-17
-2.99034e-17
-1.26489e-17
-5.34921e-18
-2.26542e-18
-9.42977e-19
-4.00936e-19
-1.66753e-19
-7.02103e-20
-3.10495e-20
8.69719e-06
-3.07534e-05
-0.000105626
0.0001546
-0.000681647
-0.00177903
0.00271587
0.0189004
0.0477882
0.0848739
0.050562
-9.2379e-05
-5.70352e-05
-4.82131e-05
-4.49367e-05
-5.32577e-05
-5.92405e-05
-6.18741e-05
-6.32077e-05
-7.46092e-05
-1.44831e-32
-6.16708e-06
-4.62869e-39
4.58994e-36
8.51048e-34
-1.04338e-31
6.50478e-30
-1.90823e-28
-8.4618e-26
2.34236e-23
-6.65612e-38
0
0
0
0
0
0
0
0
0
0
0
0
-5.63153e-41
-1.97661e-37
-2.12462e-36
8.98062e-35
5.6425e-34
5.22999e-32
8.10579e-31
7.83952e-30
2.62635e-29
2.21733e-29
9.47505e-29
6.33823e-29
3.58847e-29
2.77508e-29
1.35275e-29
9.40276e-30
1.17258e-29
7.95317e-30
1.866e-29
1.97881e-29
1.90877e-29
2.20817e-29
2.66149e-29
2.39743e-29
2.63302e-29
2.03858e-29
2.22117e-29
1.34189e-29
9.65982e-30
7.41724e-30
5.20909e-30
3.77765e-30
3.38458e-30
2.42945e-30
1.42482e-30
8.79836e-31
4.49384e-31
1.09385e-31
-1.12877e-31
-1.4163e-31
-1.77486e-31
-1.51254e-31
-1.25119e-31
-7.3679e-32
-4.46438e-32
-2.58243e-32
-1.2832e-32
-6.75562e-33
-2.7437e-33
-1.25542e-33
-5.37799e-34
-1.87804e-34
-7.49064e-35
3.43027e-35
2.76258e-35
1.69662e-35
1.98179e-35
1.05869e-35
7.9098e-36
4.04681e-36
2.09088e-36
1.12191e-36
5.81805e-37
2.89236e-37
1.26309e-37
5.97649e-38
2.73137e-38
8.8876e-39
3.93218e-39
-7.29872e-40
-1.04798e-39
-5.06253e-40
-4.63832e-40
-2.52545e-40
-1.6488e-40
-8.19329e-41
-3.62949e-41
-2.14847e-41
-1.08455e-41
-5.50867e-42
-2.51448e-42
-1.077e-42
-4.52444e-43
-1.97785e-43
-8.40644e-44
-2.35072e-44
3.66195e-44
8.334e-95
0
1.36416e-29
-7.77604e-32
-1.20631e-33
2.3158e-35
-2.24255e-38
-2.96817e-39
2.59435e-42
1.7611e-43
-2.91367e-46
-4.74331e-48
1.63641e-50
5.6583e-53
-5.71403e-56
-5.63107e-57
-6.08452e-59
-4.1277e-62
7.97069e-64
3.44036e-66
3.30349e-68
2.29289e-70
5.35028e-73
3.68406e-76
4.79556e-80
5.93891e-85
8.46063e-92
0.0649868
0.0539808
0.040716
0.0228115
0.00287793
-0.0210003
-0.0492207
-0.0778283
-0.102981
-0.119428
-0.126126
-0.123563
-0.111312
-0.096612
-0.0793258
-0.0619033
-0.0474827
-0.0341746
-0.0245613
-0.0168597
-0.011156
-0.00741067
-0.00473043
-0.00295739
-0.00186302
-0.00111235
-0.000663525
-0.000393285
-0.000226463
-0.000132162
-7.55106e-05
-4.19663e-05
-2.3772e-05
-1.2924e-05
-7.14418e-06
-3.84161e-06
-2.02704e-06
-1.09151e-06
-5.62359e-07
-2.90005e-07
-1.49832e-07
-7.60008e-08
-3.8586e-08
-1.97121e-08
-9.69204e-09
-4.90475e-09
-2.39187e-09
-1.1562e-09
-5.7186e-10
-2.73615e-10
-1.33297e-10
-6.33387e-11
-2.96406e-11
-1.41865e-11
-6.52268e-12
-3.01025e-12
-1.39633e-12
-6.37375e-13
-2.91351e-13
-1.34513e-13
-5.95707e-14
-2.72751e-14
-1.20693e-14
-5.44089e-15
-2.40226e-15
-1.04299e-15
-4.61483e-16
-1.99722e-16
-8.58649e-17
-3.75056e-17
-1.58675e-17
-6.71705e-18
-2.84532e-18
-1.18531e-18
-5.03375e-19
-2.09518e-19
-8.81151e-20
-3.87568e-20
-0.000129883
0.000186326
-0.000203942
-0.00234151
-0.0028716
0.00249159
0.0153499
0.0328873
3.769e-05
6.3567e-05
5.84422e-05
5.86558e-05
5.90045e-05
5.84943e-05
5.95198e-05
5.86909e-05
8.4271e-05
-2.14316e-05
-5.52184e-05
-1.7863e-33
-4.84263e-30
2.79873e-28
-2.2824e-26
1.07348e-24
0
0
0
0
0
0
0
0
0
0
0
0
-2.20791e-37
2.34964e-36
-5.48229e-35
-7.76415e-34
4.08263e-32
5.84243e-31
-2.18716e-29
1.87507e-29
-6.80834e-30
5.44275e-29
5.00174e-29
2.02985e-29
2.15598e-29
8.89705e-30
-1.87245e-30
6.43808e-30
1.14399e-30
-9.33547e-30
-4.3028e-30
-1.26194e-29
-1.79572e-29
-6.35934e-30
-1.29888e-29
5.08249e-31
-2.80961e-30
4.76703e-30
2.56603e-31
-9.75685e-31
8.75637e-31
-8.30981e-31
-9.54779e-31
-4.82393e-31
-8.02262e-31
-4.87938e-31
-4.05016e-31
1.22776e-31
8.74462e-32
1.69331e-32
3.62757e-32
-6.8054e-32
5.63648e-33
-4.33649e-32
-1.24061e-32
-9.36833e-33
-9.62569e-33
-5.11176e-33
-2.23712e-33
-6.79917e-34
-3.4041e-34
-1.50067e-34
3.40973e-35
-5.40409e-35
4.57725e-35
3.26556e-35
8.69606e-36
1.73059e-35
8.77005e-36
5.8964e-36
2.28659e-36
1.25138e-36
6.60142e-37
3.11016e-37
1.47986e-37
5.62201e-38
2.93579e-38
1.52009e-38
2.52472e-39
2.64293e-39
-1.96556e-39
-1.55714e-39
-4.82206e-40
-5.28602e-40
-2.51488e-40
-1.69004e-40
-8.256e-41
-3.25491e-41
-2.14879e-41
-1.02064e-41
-5.01946e-42
-2.35342e-42
-9.71305e-43
-4.23234e-43
-1.84594e-43
-7.13773e-44
-1.86661e-44
-5.49211e-44
6.18079e-35
2.45247e-36
-1.96657e-38
-1.88668e-40
1.60528e-42
8.49906e-45
-9.33012e-47
8.36578e-50
1.07785e-51
1.74192e-54
-2.81668e-56
-7.12555e-58
-3.10118e-60
7.76954e-63
4.89369e-65
3.25019e-67
3.03167e-69
1.26902e-71
1.5629e-74
5.40093e-78
2.52803e-82
4.81111e-88
0.0650241
0.0600683
0.0474631
0.0330863
0.0147523
-0.0086713
-0.0337653
-0.0626688
-0.0910302
-0.112499
-0.124913
-0.126134
-0.118537
-0.103746
-0.0884611
-0.0710393
-0.0543451
-0.0402043
-0.0290446
-0.0206039
-0.0139526
-0.00910934
-0.00600137
-0.00379521
-0.00235523
-0.00143202
-0.000872477
-0.000515577
-0.000302362
-0.000173025
-0.000100686
-5.71641e-05
-3.16463e-05
-1.74146e-05
-9.60911e-06
-5.29192e-06
-2.83393e-06
-1.48963e-06
-7.91277e-07
-4.09511e-07
-2.10238e-07
-1.08263e-07
-5.3837e-08
-2.76342e-08
-1.39035e-08
-6.90651e-09
-3.43565e-09
-1.68796e-09
-8.14532e-10
-3.92899e-10
-1.90918e-10
-9.2766e-11
-4.39752e-11
-2.05304e-11
-9.71478e-12
-4.49004e-12
-2.06549e-12
-9.56636e-13
-4.29432e-13
-1.98537e-13
-9.00502e-14
-4.03929e-14
-1.80476e-14
-8.09923e-15
-3.64565e-15
-1.60829e-15
-6.9475e-16
-3.06979e-16
-1.32603e-16
-5.68275e-17
-2.42352e-17
-1.04577e-17
-4.40766e-18
-1.86374e-18
-7.74943e-19
-3.2846e-19
-1.3649e-19
-5.76742e-20
-7.46718e-05
2.26004e-06
0.000178187
-0.00117166
-0.00317291
-0.00139111
0.00819784
0.0238104
0.0427316
5.93015e-05
6.1564e-05
5.97178e-05
5.5638e-05
5.54773e-05
5.70105e-05
5.145e-05
5.44423e-05
-7.7545e-39
1.12368e-35
1.65406e-33
-2.6208e-31
2.03407e-29
-8.84524e-28
-1.53837e-25
5.32889e-23
0
0
0
0
0
0
0
0
0
0
0
5.68573e-39
2.79642e-36
1.20328e-36
-1.4221e-33
2.12971e-33
-3.89688e-31
-7.3848e-30
2.77249e-29
1.48763e-29
7.64823e-29
7.34487e-29
3.06012e-29
3.26181e-29
1.46333e-29
-2.69737e-31
1.12928e-29
7.57572e-30
-8.81372e-30
-2.1772e-30
-1.72853e-29
-1.8052e-29
-2.07499e-29
-9.15135e-30
1.05678e-29
-4.25349e-30
6.67812e-30
1.5525e-30
-1.13952e-30
1.89225e-30
-9.03001e-32
-1.32506e-30
3.31992e-31
-4.51081e-31
-6.34007e-31
-4.35578e-31
1.62665e-31
2.57235e-31
2.24249e-31
5.18239e-32
-1.67481e-31
4.83028e-32
-5.47639e-32
-2.53392e-32
-8.38781e-33
-1.14879e-32
-7.46673e-33
-2.933e-33
-1.19979e-33
-5.1509e-34
-2.91512e-34
-8.16246e-35
-4.62057e-35
6.14058e-35
4.32601e-35
1.58358e-35
2.39803e-35
1.23565e-35
8.31423e-36
3.69322e-36
1.87483e-36
1.00594e-36
4.48385e-37
2.13993e-37
9.69423e-38
3.87993e-38
2.3588e-38
1.01635e-38
2.51537e-39
-2.45207e-39
-1.51585e-39
-7.31525e-40
-7.22232e-40
-3.69086e-40
-2.48417e-40
-1.22779e-40
-5.05352e-41
-3.18138e-41
-1.52052e-41
-7.57816e-42
-3.40427e-42
-1.45194e-42
-6.27944e-43
-2.76844e-43
-1.123e-43
-2.75721e-44
-1.13093e-44
-8.96581e-26
9.51369e-32
6.88999e-29
-6.34107e-27
-4.74183e-29
-4.02559e-06
0.0598505
6.23725e-05
6.3506e-05
-1.55373e-40
2.76319e-34
0
0
0
0
0
0
0
0
0
0
0
0
0
0
0
0
0
0
0
0
0
0
0
0
0
0
0
0
0
0
0
0
0
0
0
0
0
0
0
0
0
0
0
0
0
0
0
0
0
0
0
0
0
0
0
0
0
0
0
0
0
0
0
0
0
0
0
0
0
0
0
0
0
0
0
0
0
0
0
0
0
0
0
0
0
0
0
0
0
0
0
0
0
0
0
0
0
0
0
0
0
0
0
0
0
0
0
0
0
0
0
0
0
0
0
0
0
0
0
0
0
0
0
0
0
0
0
0
0
0
0
0
0
0
0
0
0
0
0
0
0
0
0
0
0
0
0
0
0
0
0
0
0
0
0
0
0
0
0
0
0
0
0
0
0
0
0
0
0
0
0
0
0
0
0
0
0
0
0
0
0
0
0
0
0
0
0
0
0
0
0
0
0
0
0
0
0
-2.24356e-05
0
0
0
0
0
0
0
0
0
0
0
0
0
0
0
0
0
0
0
0
0
0
0
0
0
0
0
0
0
0
0
0
0
0
0
0
0
0
0
0
0
0
0
0
0
0
0
0
0
0
0
0
0
0
0
0
0
0
0
0
0
0
0
0
0
0
0
0
0
0
0
0
0
0
0
0
0
0
0
0
0
0
0
0
0
0
0
0
0
0
0
0
0
0
0
0
0
0
0
0
0
0
0
0
0
0
0
0
0
0
0
0
0
0
0
0
0
0
0
0
0
0
-7.91773e-144
-1.00062e-143
3.71364e-139
-5.04673e-140
4.52756e-136
4.1041e-136
3.40156e-136
2.81491e-136
3.84502e-134
4.66624e-134
3.19237e-134
3.80269e-134
2.4503e-134
2.39109e-134
2.31398e-132
2.70969e-132
4.05551e-132
4.74877e-132
1.24862e-131
-2.83877e-131
1.24105e-130
1.26328e-130
2.11436e-130
2.51678e-130
2.58683e-130
3.03239e-130
1.65513e-130
1.97282e-130
2.62679e-130
2.81279e-130
1.69992e-130
1.7981e-130
1.1255e-130
1.09807e-130
3.71684e-130
3.53707e-130
1.40071e-128
1.5427e-128
2.17229e-128
3.68322e-129
2.91689e-126
3.18134e-126
5.18676e-126
5.75925e-126
3.50904e-126
3.46872e-126
1.17843e-125
2.72055e-126
3.82058e-125
4.07071e-125
3.0801e-125
2.42659e-125
1.28093e-123
1.39398e-123
9.23632e-124
9.30135e-124
6.12544e-124
6.0133e-124
1.37145e-123
-2.90537e-123
2.23911e-122
1.99004e-122
5.03896e-122
4.46822e-122
1.01736e-121
1.00813e-121
7.23773e-121
6.14108e-121
4.8031e-121
4.02954e-121
3.40716e-121
2.62785e-121
2.05264e-120
2.17231e-120
1.42037e-120
1.47612e-120
9.58408e-121
9.87407e-121
3.27084e-120
3.24102e-120
3.87232e-120
3.87857e-120
4.65336e-120
-3.87136e-120
4.22378e-120
-1.93562e-120
2.2812e-119
2.32686e-119
8.78547e-119
-2.16297e-118
3.29058e-117
3.4259e-117
2.23264e-117
1.95394e-117
1.5339e-117
1.23137e-117
1.11017e-117
7.86083e-118
8.90683e-117
9.2025e-117
6.95719e-117
7.09171e-117
4.75826e-117
4.64576e-117
2.04091e-116
1.91187e-116
3.11227e-116
3.15612e-116
2.16618e-116
1.82645e-116
5.04675e-116
1.01558e-116
2.20027e-115
2.1629e-115
1.58221e-115
1.2363e-115
4.28403e-115
4.87312e-115
2.8062e-115
2.9147e-115
1.84094e-115
1.84428e-115
1.27734e-115
9.07214e-116
1.56542e-115
1.41843e-115
3.35963e-115
3.43447e-115
2.37441e-115
2.07662e-115
1.82049e-114
1.74626e-114
2.13421e-114
2.18585e-114
1.43681e-114
1.44717e-114
1.39819e-114
8.63e-115
2.51126e-114
2.56255e-114
1.93102e-114
9.31163e-115
4.50904e-114
4.79927e-114
2.98275e-114
3.0632e-114
1.93471e-114
1.97881e-114
1.58846e-114
1.50744e-114
1.09559e-114
9.60756e-115
1.03375e-114
1.1286e-115
2.00984e-113
2.00113e-113
1.46195e-113
8.67399e-114
2.40678e-113
2.22743e-113
1.70169e-113
1.33505e-113
9.04212e-113
8.87723e-113
6.61084e-113
6.52376e-113
4.43291e-113
4.43398e-113
6.46027e-113
6.41353e-113
6.55948e-113
6.76569e-113
9.83722e-113
-1.27572e-112
4.01724e-112
3.29306e-112
6.20459e-112
6.64498e-112
4.11398e-112
4.29942e-112
4.37217e-112
4.75108e-112
3.00147e-112
2.82218e-112
3.79719e-112
4.06795e-112
2.51386e-112
2.5532e-112
7.94352e-112
8.17125e-112
5.89994e-112
6.0392e-112
3.96734e-112
4.04629e-112
7.17822e-112
7.05159e-112
7.82095e-112
8.1551e-112
5.19954e-112
5.35949e-112
4.93735e-112
3.1652e-112
6.50636e-112
6.3657e-112
5.81007e-112
4.24074e-112
3.88672e-112
3.00813e-112
2.88625e-112
1.61394e-112
5.54187e-112
5.53944e-112
3.66139e-112
3.53971e-112
3.57661e-112
3.59633e-112
3.96264e-112
4.37201e-112
2.5376e-112
2.76844e-112
3.99114e-112
4.21945e-112
3.58593e-112
3.85836e-112
2.33532e-112
2.5293e-112
1.67321e-112
1.4702e-112
1.78427e-112
1.88541e-112
1.21195e-112
1.19044e-112
1.86921e-112
1.78167e-112
1.60841e-112
1.60562e-112
1.03791e-112
1.06238e-112
7.62209e-113
8.14546e-113
5.46447e-113
5.76426e-113
5.34485e-113
4.56562e-115
3.19609e-112
3.27571e-112
2.25441e-112
2.10027e-112
1.49845e-112
1.39715e-112
9.95109e-113
9.30374e-113
2.04574e-112
2.17528e-112
1.58537e-112
1.71473e-112
7.27587e-112
9.84504e-113
5.11594e-108
6.45561e-108
3.46179e-108
3.58042e-108
3.30034e-109
-2.13286e-108
8.46518e-104
-3.24559e-104
3.74222e-99
2.05165e-99
3.34428e-95
4.11178e-95
2.25065e-95
1.06397e-94
2.82647e-95
1.32444e-31
1.03328e-24
-1.97198e-23
-1.39118e-21
-2.97778e-21
-5.98825e-23
-7.13798e-29
-7.62447e-27
-4.06648e-28
-1.44279e-33
2.38114e-05
2.74572e-35
-2.34464e-38
-3.52359e-39
2.94381e-42
2.06901e-43
-3.43138e-46
-5.46931e-48
1.90054e-50
6.69922e-53
-6.36646e-56
-6.72923e-57
-7.17138e-59
-4.70087e-62
9.43324e-64
4.10679e-66
3.9533e-68
2.72991e-70
6.26408e-73
4.27667e-76
5.38379e-80
6.49584e-85
9.76211e-92
3.5279e-94
-0.00136475
-7.62522e-05
-0.00875725
-0.0139472
-0.0174312
-0.0211022
-0.0258743
-0.0303387
-0.0324137
-0.0325241
-0.0286041
-0.0234
-0.0176893
-0.0112877
-0.00523057
-0.00357416
-0.00157501
-0.000234783
0.000306563
0.000598173
0.000279706
0.000286255
0.000308997
0.00016709
0.000108428
5.92637e-05
5.13602e-05
2.59968e-05
1.28718e-05
1.09165e-05
8.89007e-06
4.03913e-06
2.21763e-06
9.4943e-07
5.79357e-07
3.65262e-07
1.31623e-07
5.92423e-08
1.71687e-08
9.97111e-09
3.7499e-09
5.51473e-11
-4.01775e-10
5.60696e-10
-1.63323e-11
3.87673e-11
-1.15456e-11
-3.10514e-11
-1.46456e-11
-1.7231e-11
-8.00916e-12
-2.91357e-12
-2.74593e-12
-1.53036e-12
-9.68272e-13
-4.58677e-13
-2.2475e-13
-1.29627e-13
-6.51207e-14
-2.47784e-14
-1.39865e-14
-6.02746e-15
-2.82473e-15
-1.37853e-15
-5.39292e-16
-2.8361e-16
-1.46338e-16
-5.99613e-17
-2.8811e-17
-1.32973e-17
-6.53348e-18
-2.73812e-18
-1.23093e-18
-5.79413e-19
-2.32713e-19
-9.0545e-20
-4.07245e-20
-1.86009e-20
-1.02366e-20
8.40799e-05
-2.05636e-20
-2.87252e-33
5.85819e-05
0.000192078
-0.000623333
-0.000997755
0.00106449
0.004702
0.00807459
0.00862255
5.7393e-05
-1.49303e-05
3.79132e-05
0.00582769
4.39074e-05
-2.34607e-05
-2.07385e-05
-1.83471e-40
3.87231e-05
3.86686e-05
3.88168e-05
3.89221e-05
3.79506e-05
3.31206e-05
7.65345e-05
5.95806e-06
1.05764e-05
-1.23016e-05
-1.72372e-32
-3.46187e-33
0.000627515
-0.0105987
1.62317e-29
5.86861e-31
-0.00021069
4.88714e-05
-7.91637e-06
0.000252297
0.000215398
0.000267449
0.000345413
-1.45064e-05
0.000305559
-0.000521281
5.61146e-05
-0.000911492
-0.000271011
-0.000972019
-0.000500199
-0.000441996
-0.000383827
0.000524452
-0.000126789
0.00198066
0.000187149
0.00388354
0.000728383
0.0056588
0.0012774
0.00712262
0.00152562
0.00818614
0.00114499
0.00837888
0.000912459
0.0078323
-0.00047909
0.00642721
-0.00173335
0.0047974
-0.00385824
0.00210581
-0.00599984
3.98456e-05
-0.00761545
-0.00347747
-0.00892846
-0.00614387
-0.0110895
-0.00898556
-0.0121297
-0.0115773
-0.0131407
-0.0132849
-0.0135311
-0.0147564
-0.0132877
-0.0156832
-0.012925
-0.0173151
-0.0124892
-0.0186731
-0.0115895
-0.0198546
-0.0105698
-0.0220554
-0.0103628
-0.0240135
-0.00957492
-0.0257436
-0.00972849
-0.0264042
-0.00917032
-0.0265927
-0.00648324
-0.025795
-0.00661808
-0.023624
-0.00373073
-0.0218737
-0.000386461
-0.0184815
0.000737699
-0.0168986
0.00502922
-0.0163325
0.00553149
-0.013838
0.00476241
-0.0111728
0.00655511
-0.00823891
0.00766013
-0.00697451
0.00917395
-0.00493951
0.00847883
-0.00259371
0.00868793
-0.00224195
0.00967213
-0.000585017
0.00801062
0.000487552
0.00815933
0.000287112
0.00810863
0.000527265
0.00657884
0.00112363
0.00583005
0.000886152
0.00559463
0.0010544
0.0044764
0.00115426
0.00405216
0.00122389
0.00354847
0.00103868
0.00315984
0.000962606
0.00257629
0.000960027
0.00222207
0.000674122
0.00194904
0.000651262
0.00144472
0.000582916
0.00123408
0.000416391
0.00105021
0.000341922
0.000776688
0.000307758
0.000624222
0.000213229
0.000526761
0.000193083
0.00038212
0.000164405
0.000314861
0.000124053
0.000257795
0.000106173
0.000191087
7.40477e-05
0.000161019
4.76872e-05
0.000114305
3.92513e-05
7.9245e-05
3.23306e-05
6.34066e-05
2.68981e-05
4.98129e-05
1.89603e-05
4.0285e-05
1.46738e-05
2.85945e-05
1.21405e-05
2.18683e-05
7.94215e-06
1.73974e-05
6.64954e-06
1.19361e-05
5.29372e-06
9.33075e-06
3.78104e-06
7.26831e-06
3.04542e-06
5.14299e-06
2.00045e-06
4.12733e-06
1.22194e-06
2.77393e-06
9.60913e-07
1.82329e-06
7.51721e-07
1.4022e-06
5.9504e-07
1.0589e-06
4.1738e-07
8.13445e-07
3.19652e-07
5.72983e-07
2.55731e-07
4.37244e-07
1.58274e-07
3.34083e-07
1.26433e-07
2.17391e-07
9.61933e-08
1.63898e-07
5.96949e-08
1.24038e-07
4.31364e-08
8.01716e-08
3.37939e-08
5.80336e-08
2.15146e-08
4.37852e-08
1.63837e-08
2.88958e-08
1.23911e-08
2.15578e-08
9.44076e-09
1.58494e-08
6.36832e-09
1.18061e-08
4.72467e-09
8.02883e-09
3.63243e-09
5.96062e-09
2.17414e-09
4.42384e-09
1.6743e-09
2.76109e-09
1.23164e-09
2.01955e-09
7.3824e-10
1.48507e-09
5.22925e-10
9.28405e-10
3.96488e-10
6.57812e-10
2.31055e-10
4.83776e-10
1.77637e-10
2.9905e-10
1.30971e-10
2.17739e-10
8.49025e-11
1.58307e-10
6.36063e-11
1.02998e-10
3.64366e-11
7.71537e-11
1.89441e-11
4.60674e-11
1.40886e-11
2.66142e-11
1.05031e-11
1.93664e-11
7.92831e-12
1.39083e-11
4.5299e-12
1.02244e-11
3.18428e-12
6.12968e-12
2.41727e-12
4.28088e-12
1.25431e-12
3.12108e-12
9.76462e-13
1.79724e-12
7.21125e-13
1.29966e-12
2.80473e-13
9.43907e-13
2.10804e-13
4.56893e-13
1.70488e-13
3.36192e-13
8.50558e-14
2.45946e-13
6.46468e-14
1.39534e-13
4.92e-14
1.01402e-13
3.77894e-14
7.26671e-14
2.25805e-14
5.2548e-14
1.66789e-14
3.26838e-14
1.28852e-14
2.36465e-14
5.62111e-15
1.70225e-14
4.43486e-15
8.83227e-15
3.26237e-15
6.29675e-15
1.30534e-15
4.51785e-15
8.54808e-16
2.29418e-15
7.07777e-16
1.53306e-15
2.71167e-16
1.12055e-15
2.19307e-16
5.69623e-16
1.756e-16
4.15899e-16
1.40902e-16
2.99637e-16
7.97832e-17
2.16902e-16
6.08188e-17
1.3076e-16
4.84886e-17
9.39898e-17
3.53764e-17
6.58867e-17
1.74912e-17
4.75796e-17
1.16938e-17
2.61386e-17
2.32472e-18
1.72525e-17
1.17948e-18
6.81169e-18
1.35394e-18
4.35504e-18
-3.63864e-19
3.28634e-18
-2.93449e-20