/*--------------------------------*- C++ -*----------------------------------*\
  =========                 |
  \\      /  F ield         | OpenFOAM: The Open Source CFD Toolbox
   \\    /   O peration     | Website:  https://openfoam.org
    \\  /    A nd           | Version:  7
     \\/     M anipulation  |
\*---------------------------------------------------------------------------*/
FoamFile
{
    version     2.0;
    format      ascii;
    class       volScalarField;
    location    "0.75";
    object      T;
}
// * * * * * * * * * * * * * * * * * * * * * * * * * * * * * * * * * * * * * //

dimensions      [0 0 0 1 0 0 0];

internalField   nonuniform List<scalar> 
23686
(
0.509941
0.910643
0.997281
0.975489
1.00718
1.01727
1.00286
1.00909
1.00026
1.00127
0.999751
0.999405
0.999891
0.999662
0.999995
0.99997
1.00001
1.00003
1.00001
1.00002
1
1
0.999999
0.999998
1
0.999999
1
1
1
1
1
1
1
1
1
1
1
1
1
1
1
1
1
1
1
1
1
1
1
1
1
1
1
1
1
1
1
1
1
1
1
1
1
1
1
1
1
1
1
1
1
1
1
1
1
1
1
1
1
1
1
1
1
1
1
1
1
1
1
1
1
1
1
1
1
1
1
1
1
1
1
1
1
1
1
1
1
1
1
1
1
1
1
1
1
1
1
1
1
1
1
1
1
1
1
1
1
1
1
1
1
1
1
1
1
1
1
1
1
1
1
1
1
1
1
1
1
1
1
1
1
1
1
1
1
1
1
1
1
1
1
1
1
1
1
1
1
1
1
1
1
1
1
1
1
1
1
1
1
1
1
1
1
1
1
1
1
1
1
1
1
1
1
1
1
1
1
1
1
0.11164
-0.00310636
-0.000317299
5.52315e-05
-1.03085e-05
1.75243e-07
1.75516e-07
-3.22223e-08
2.01359e-09
3.75098e-10
-1.68621e-10
1.44734e-11
1.36952e-12
-8.03051e-13
9.05027e-14
5.80507e-15
-3.4241e-15
4.66618e-16
-1.88136e-17
-1.50883e-17
3.85131e-18
-1.66612e-19
-6.59991e-20
2.3796e-20
-3.01391e-21
-5.26244e-22
2.45561e-22
-4.00912e-23
-1.50409e-23
3.85546e-24
1.4072e-24
-7.48697e-26
-6.45041e-26
-3.19127e-27
2.12408e-27
3.03205e-28
2.26098e-30
-9.89673e-30
-1.28238e-30
1.69009e-32
2.12299e-32
2.47612e-33
-1.6797e-35
-3.78244e-35
-5.21352e-36
-1.4656e-37
4.52792e-38
5.9348e-39
1.98333e-40
-1.27359e-56
-6.61227e-41
1.8879e-39
1.83499e-38
5.00794e-36
-2.19745e-35
-2.21926e-34
-3.04956e-33
-4.19085e-31
-5.21456e-30
-9.32921e-29
1.10144e-28
7.85761e-27
9.19652e-26
-2.64966e-26
-1.21151e-23
-5.37281e-23
6.05356e-22
3.31409e-21
-4.09716e-20
1.35628e-19
6.74364e-18
5.60742e-18
-1.39861e-16
-1.70425e-15
3.13924e-15
5.46821e-14
-2.97687e-15
3.27725e-13
-1.71807e-12
-1.42089e-11
-8.59385e-11
1.30736e-10
5.94991e-10
-1.78025e-09
5.66995e-10
4.24529e-09
-3.05121e-09
3.87321e-09
-1.0046e-07
2.57139e-08
6.62326e-07
1.69302e-06
-2.42545e-06
-2.30005e-05
-4.26806e-05
3.16807e-05
0.000418172
0.00142679
0.0026135
0.00430604
1
1
1
1
1
1
1
1
1
1
1
1
1
1
1
1
1
1
1
1
1
1
1
1
1
1
1
1
1
1
1
1
1
1
1
1
1
1
1
1
1
1
1
1
1
1
1
1
1
1
1
1
1
1
1
1
1
1
1
1
1
1
1
1
1
1
1
1
0.999999
1
1
1
1
1
1
1
0.999999
0.999999
0.999999
0.999999
1
1
1
1
0.999999
0.999998
0.999992
0.999993
0.999991
0.999992
0.999997
0.999997
1.00001
1.00001
1.00005
1.00004
1.00011
1.00009
1.00015
1.00013
1.00009
1.00009
0.999884
0.999935
0.999417
0.999566
0.998538
0.998836
0.997035
0.997507
0.994488
0.995243
0.990614
0.991831
0.985026
0.986795
0.977428
0.979812
0.967347
0.970556
0.954294
0.95832
0.937894
0.942699
0.91782
0.923821
0.893518
0.900789
0.866168
0.874165
0.835337
0.844486
0.800481
0.811042
0.762217
0.773493
0.722329
0.733879
0.679206
0.691681
0.634591
0.647608
0.587992
0.601515
0.542292
0.555394
0.496792
0.510041
0.450391
0.463786
0.406728
0.419202
0.364563
0.37665
0.323873
0.335447
0.286435
0.296976
0.251886
0.261763
0.218655
0.228018
0.189556
0.197642
0.163252
0.1706
0.13923
0.145941
0.118546
0.124433
0.0996468
0.104973
0.0836919
0.0881718
0.0696452
0.0735723
0.0573627
0.0607568
0.0472649
0.0500333
0.0387332
0.0410873
0.0312516
0.0332537
0.0251179
0.026705
0.0200698
0.0213878
0.0158136
0.0169752
0.0122108
0.0132066
0.00942625
0.0101919
0.0067774
0.00479149
0.00731881
-6.07728e-41
0.0033801
0.0139069
-0.00200416
0.000101508
-3.29739e-06
-3.45346e-06
5.32192e-07
-1.86721e-08
-8.67423e-09
1.98581e-09
-2.29594e-10
-3.01286e-11
1.01881e-11
-1.26525e-12
-1.00729e-13
5.22188e-14
-6.12813e-15
-2.59992e-16
1.91947e-16
-4.46839e-17
2.08405e-18
1.23196e-18
-2.67015e-19
2.43013e-20
5.0545e-21
-2.50497e-21
2.89058e-22
5.06672e-23
-3.96378e-23
8.73867e-26
3.04654e-24
3.12566e-25
-1.15525e-25
-2.3146e-26
2.33457e-27
9.62837e-28
7.19734e-29
-1.28724e-29
-4.38098e-30
-2.22206e-31
3.7163e-32
8.25252e-33
4.92305e-34
-6.86142e-35
-1.53905e-35
-1.2968e-36
5.81226e-38
1.90408e-38
1.46642e-39
-0.00133342
-4.06517e-41
0.00383296
1.28541e-39
-6.48878e-39
-1.34612e-36
4.05959e-36
1.42131e-35
-2.42379e-34
7.80398e-32
1.58163e-30
1.98924e-29
2.64676e-28
-2.68257e-27
-2.54471e-26
-1.80176e-25
2.21066e-24
3.58189e-23
-3.92942e-23
-2.12788e-21
3.56369e-21
1.07818e-19
-1.90619e-18
-1.1691e-17
2.70968e-17
6.06568e-16
2.10034e-15
-2.2055e-14
-6.1745e-14
9.77689e-15
-4.66742e-13
7.25209e-12
3.28315e-11
1.13665e-10
-6.29296e-10
8.15989e-10
5.70902e-10
-4.32617e-09
1.18032e-08
-8.77903e-09
-3.45145e-08
-4.79711e-08
3.32682e-07
8.50987e-07
1.12403e-06
-9.35134e-06
-3.54001e-05
-2.48994e-05
0.000145292
0.000895981
0.00219614
0.000148593
0.0642368
-2.77272e-05
0.453368
0.000140418
1.57756e-06
-1.07378e-05
1.40764e-06
-1.25929e-08
-2.71604e-08
5.36429e-09
-5.3326e-10
-1.0663e-10
2.86304e-11
-3.09299e-12
-3.83714e-13
1.51934e-13
-1.55491e-14
-1.30436e-15
5.46676e-16
-1.17498e-16
3.55116e-18
3.78118e-18
-7.13984e-19
5.72066e-20
1.49852e-20
-6.90112e-21
7.81446e-22
1.1433e-22
-1.24017e-22
2.84481e-24
9.99484e-24
1.10705e-24
-3.96415e-25
-7.96636e-26
6.14418e-27
3.47518e-27
2.72363e-28
-3.92418e-29
-1.48463e-29
-9.44666e-31
1.17414e-31
2.90769e-32
2.01518e-33
-2.17553e-34
-5.35485e-35
-4.99437e-36
1.4667e-37
6.65356e-38
5.59491e-39
1.68854e-41
-6.09947e-39
-1.1275e-36
5.64616e-36
1.136e-35
1.026e-34
5.59671e-32
7.14123e-31
6.78537e-30
1.22878e-28
-2.64013e-27
-1.88857e-26
-1.24211e-25
1.88746e-24
2.69823e-23
-3.04908e-23
-1.35957e-21
5.58977e-21
9.21364e-20
-1.4449e-18
-6.63416e-18
3.67568e-17
4.95762e-16
1.60745e-15
-1.52852e-14
-2.86486e-14
5.09082e-14
-6.32559e-13
4.23749e-12
2.1642e-11
9.65257e-11
-4.98692e-10
7.00885e-10
3.11025e-10
-3.53082e-09
1.09334e-08
-7.77543e-09
-3.88643e-08
-5.25395e-08
3.59892e-07
1.00834e-06
1.0004e-06
-1.09089e-05
-3.89057e-05
-2.41794e-05
0.0001795
0.00102103
0.00241652
1.21503e-39
-1.13217e-07
5.32847e-07
-8.58979e-08
3.92802e-09
1.22829e-09
-4.57859e-10
3.2832e-11
4.88648e-12
-2.17939e-12
2.2618e-13
2.23047e-14
-9.29731e-15
1.09155e-15
-2.81138e-17
-4.50967e-17
9.97588e-18
-2.72444e-19
-2.01162e-19
6.12734e-20
-7.09564e-21
-1.49091e-21
6.61543e-22
-1.25377e-22
-4.47525e-23
1.41099e-23
4.51931e-24
-2.28816e-25
-2.23224e-25
-1.30534e-26
6.63734e-27
1.15449e-27
1.24802e-29
-3.03108e-29
-4.79676e-30
1.33486e-32
7.09214e-32
8.9566e-33
4.92153e-35
-1.30746e-34
-1.80568e-35
-7.24439e-37
1.51539e-37
2.19405e-38
1.01127e-39
-2.76019e-39
4.2443e-36
-2.47599e-35
-2.66267e-34
-1.87499e-33
-2.72315e-31
-2.01314e-30
-4.55425e-29
3.19643e-28
6.62197e-27
6.97954e-26
-1.06342e-25
-9.93174e-24
-4.03195e-23
4.26175e-22
1.69781e-21
-3.73665e-20
9.59254e-20
4.76604e-18
-2.84844e-18
-1.33363e-16
-1.32596e-15
2.70544e-15
3.64162e-14
-4.15445e-14
2.947e-13
-7.41087e-13
-8.05653e-12
-6.66066e-11
1.01118e-10
5.06319e-10
-1.45012e-09
2.68861e-10
4.16257e-09
-1.79794e-09
-5.36442e-11
-1.02213e-07
4.20315e-08
7.2966e-07
1.74413e-06
-2.95271e-06
-2.53678e-05
-4.5424e-05
4.06019e-05
0.000492885
0.00164061
0.00291835
-0.00528114
-0.00556021
9.45522e-40
0.594883
-0.00160947
0.942444
1.00339
0.979133
1.00791
1.01325
1.00265
1.00761
0.999944
1.00096
0.999656
0.999356
0.999885
0.999649
1
0.999959
1.00002
1.00003
1.00001
1.00002
1
1
0.999999
0.999998
1
0.999999
1
1
1
1
1
1
1
1
1
1
1
1
1
1
1
1
1
1
1
1
1
1
1
1
1
1
1
1
1
1
1
1
1
1
1
1
1
1
1
1
1
1
1
1
1
1
1
1
1
1
1
1
1
1
1
1
1
1
1
1
1
1
1
1
1
1
1
1
1
1
1
1
1
1
1
1
1
1
1
1
1
1
1
1
1
1
1
1
1
1
1
1
1
1
1
1
1
1
1
1
1
1
1
1
1
1
1
1
1
1
1
1
1
1
1
1
1
1
1
1
1
1
1
1
1
1
1
1
1
1
1
1
1
1
1
1
1
1
1
1
1
1
1
1
1
1
1
1
1
1
1
1
1
1
1
1
1
1
1
1
1
1
1
1
1
1
1
1
1
-8.00771e-40
0.00261077
0.000236229
0.235597
-1.05639e-05
-3.43467e-06
7.57138e-07
-5.52954e-08
-7.56084e-09
3.24048e-09
-3.78286e-10
-2.40992e-11
1.56869e-11
-2.16099e-12
-8.04941e-14
7.1151e-14
-1.06651e-14
4.14521e-16
2.83898e-16
-7.56697e-17
4.79575e-18
1.4092e-18
-4.43889e-19
5.79717e-20
5.14317e-21
-4.03968e-21
7.80764e-22
8.40917e-23
-9.20467e-23
-8.11242e-24
5.75289e-24
9.3791e-25
-1.27985e-25
-5.65098e-26
-1.55128e-27
1.17764e-27
2.11264e-28
2.40697e-30
-4.61646e-30
-5.66258e-31
7.45113e-33
9.683e-33
1.10988e-33
-3.42118e-36
-1.56051e-35
-2.04678e-36
-6.27678e-38
1.65723e-38
2.59591e-39
-8.93329e-38
-0.00445074
-0.00527208
-0.00421271
6.63699e-41
0.00483267
0.00655872
-1.31586e-05
-1.12008e-05
0.517419
6.31543e-36
-3.7461e-35
-3.57521e-34
1.70981e-33
-2.8447e-31
-1.84494e-30
-3.90581e-29
1.75767e-28
8.44366e-27
8.63206e-26
3.52702e-26
-1.11472e-23
-6.80695e-23
4.2305e-22
3.12305e-21
-4.17356e-20
-3.57862e-20
6.10024e-18
2.22947e-18
-1.50072e-16
-1.84986e-15
1.41296e-15
5.46767e-14
-2.66848e-14
3.29468e-13
-3.49902e-13
-1.1923e-11
-9.34939e-11
3.37676e-11
1.06711e-09
-2.28497e-09
-3.06749e-10
8.90166e-09
-8.28958e-09
-1.75426e-09
-1.34282e-07
1.26079e-07
1.01915e-06
2.18233e-06
-6.13464e-06
-3.67847e-05
-5.16455e-05
9.44883e-05
0.000782153
0.00232193
0.00348953
0.00465694
0.0528654
0.185682
0.025489
7.61732e-05
0.000473589
6.62957e-05
7.89362e-06
1
1
1
1
1
1
1
1
1
1
1
1
1
1
1
1
1
1
1
1
1
1
1
1
1
1
1
1
1
1
1
1
1
1
1
1
1
1
1
1
1
1
1
1
1
1
1
1
1
1
1
1
1
1
1
1
1
1
1
1
1
1
1
1
1
1
1
1
1
1
1
1
1
1
0.999999
0.999999
1
1
1
1
1
1
0.999996
0.999997
0.999991
0.999992
0.999992
0.999991
1
0.999996
1.00002
1.00001
1.00006
1.00004
1.00011
1.00009
1.00013
1.00013
1.00005
1.00011
0.999844
0.999985
0.999383
0.999669
0.998518
0.999031
0.996968
0.997832
0.994312
0.995672
0.990492
0.992413
0.984996
0.987795
0.977381
0.981102
0.967417
0.972269
0.954246
0.96043
0.937354
0.944906
0.917292
0.926033
0.89352
0.904231
0.865762
0.877869
0.834879
0.848032
0.800943
0.815355
0.762846
0.779219
0.721619
0.738281
0.679162
0.696771
0.634741
0.652777
0.588623
0.607384
0.542278
0.560612
0.497216
0.514931
0.451616
0.469811
0.407218
0.424364
0.364984
0.381171
0.324699
0.340234
0.286804
0.301206
0.252253
0.265109
0.219679
0.232048
0.189917
0.201009
0.163287
0.172933
0.139882
0.148602
0.119058
0.126502
0.100474
0.107324
0.0841739
0.0900268
0.0700944
0.0751882
0.0578248
0.0622433
0.0475092
0.0511675
0.0388769
0.04185
0.0314551
0.0340617
0.0250182
0.0271486
0.0198901
0.0215387
0.0158416
0.0171294
0.0125185
0.013725
0.759785
1.6857e-39
-0.000422185
0.806072
4.99267e-40
0.000213928
-1.37637e-38
1.3633e-39
6.51626e-07
1.63027e-07
-4.58153e-08
4.84777e-09
4.09135e-10
-2.17895e-10
2.77078e-11
1.32193e-12
-1.08694e-12
1.45725e-13
3.01295e-15
-4.18349e-15
9.07272e-16
-5.13831e-17
-2.2086e-17
5.80862e-18
-4.95061e-19
-7.89452e-20
4.08888e-20
-6.41798e-21
-4.49233e-22
5.44664e-22
-9.80051e-23
-4.10608e-23
4.96955e-24
3.0001e-24
7.95583e-26
-1.11996e-25
-1.69428e-26
1.65775e-27
5.43318e-28
5.59744e-29
-7.09454e-30
-1.85351e-30
-1.08027e-31
1.84203e-32
3.78573e-33
2.11027e-34
-2.67587e-35
-6.38812e-36
-4.9045e-37
1.67939e-38
7.68716e-39
-7.72997e-38
-2.0881e-07
-9.97786e-37
3.59631e-36
-7.70107e-36
4.44092e-34
5.09028e-32
6.51895e-31
3.69995e-30
1.68026e-28
-3.03258e-27
-1.96741e-26
-1.90963e-25
1.5942e-24
3.4177e-23
1.99923e-23
-1.75083e-21
3.06215e-21
1.37589e-19
-1.47412e-18
-1.09914e-17
3.65757e-17
5.73579e-16
3.07257e-15
-1.66645e-14
-6.31908e-14
9.5303e-14
-1.05351e-12
5.42605e-12
2.90996e-11
1.73331e-10
-6.52914e-10
5.20478e-10
1.2245e-09
-4.47828e-09
1.27968e-08
-9.19119e-09
-6.80936e-08
-2.40405e-08
5.76624e-07
1.37036e-06
2.28896e-07
-1.76082e-05
-5.02675e-05
-9.91039e-06
0.000308957
0.00150821
0.00334931
1.61869e-06
-3.69775e-12
-8.21632e-39
3.80224e-11
0.00961424
-2.75324e-05
-1.26064e-10
0.00240872
0.000762899
7.96532e-05
-5.8548e-05
-3.68767e-05
-5.23953e-06
2.38564e-06
1.03472e-06
9.62186e-08
-1.42396e-07
-1.11047e-09
-5.20717e-09
7.65284e-09
-1.22402e-10
-2.10759e-09
8.94359e-10
7.59081e-11
-8.8886e-11
-9.38537e-12
-2.91101e-13
3.59794e-13
-7.29787e-14
4.77219e-14
2.76132e-15
-1.8764e-15
-1.82881e-16
-6.58974e-18
5.92162e-18
4.996e-20
-5.07053e-20
1.76181e-21
5.07045e-22
-5.54724e-23
-1.21444e-23
-1.15642e-25
8.80813e-26
8.74491e-27
5.4038e-28
-2.63268e-29
-6.7509e-31
-2.74557e-31
-6.3321e-34
-4.07529e-34
8.87569e-39
3.89352e-38
-3.02961e-37
-6.39601e-36
-4.15698e-35
7.71827e-35
3.62039e-33
2.77298e-32
-2.6675e-32
-1.78768e-30
-1.17364e-29
2.72672e-29
6.07477e-28
3.11054e-27
-9.52464e-27
-1.5067e-25
-2.51057e-25
2.96697e-24
1.34358e-23
-3.01376e-23
-2.26394e-22
3.20527e-22
1.36584e-21
-9.59328e-21
2.3877e-20
8.01617e-20
-9.93231e-19
4.70588e-18
2.89191e-19
-1.54517e-16
8.70801e-16
-6.25028e-16
-1.79509e-14
1.83419e-13
-5.72657e-13
0.00352834
0.00151105
0.000286989
-2.32e-05
-5.30672e-05
-1.66776e-05
8.55196e-07
1.45298e-06
5.37495e-07
-5.15713e-08
-6.36545e-08
-8.82842e-09
1.38699e-08
-4.61894e-09
8.1404e-10
7.49861e-10
-6.6978e-10
1.52106e-10
2.6503e-11
4.56745e-12
-1.03208e-12
1.15968e-13
-3.69686e-14
-1.86683e-14
2.45747e-15
6.58858e-16
5.31762e-17
-8.28885e-18
-1.69149e-18
1.3545e-19
7.08273e-21
-1.63176e-21
-1.94567e-23
3.47591e-23
2.17725e-24
-1.59309e-25
-2.07351e-26
-3.75337e-27
9.76593e-29
5.67003e-31
5.47519e-31
-1.27198e-36
2.22157e-38
1.15996e-38
-1.71132e-36
-1.86149e-35
-5.37104e-35
8.25281e-34
1.09814e-32
4.03935e-32
-4.22366e-31
-5.32719e-30
-1.30296e-29
1.90494e-28
1.55291e-27
2.50381e-27
-5.5925e-26
-2.74104e-25
4.8654e-25
8.10037e-24
6.98829e-24
-1.16239e-22
-1.80937e-22
1.30647e-21
-1.99643e-21
-9.75961e-21
9.61258e-20
-2.96448e-19
-3.96658e-19
1.22175e-17
-6.86905e-17
8.43914e-18
1.81496e-15
-1.13079e-14
3.26988e-14
2.27836e-13
-2.81779e-12
8.26063e-12
4.07322e-11
-5.316e-10
1.9919e-09
6.03971e-09
-1.04476e-07
5.89488e-07
7.83204e-09
-3.02927e-08
-3.21944e-08
-5.64741e-10
-3.989e-35
6.14721e-36
8.00197e-36
-3.29504e-36
3.36384e-34
6.29973e-32
0.000277452
0.982244
1.00991
1.00371
1.00638
1.01397
1.00125
1.00491
0.999712
1.00021
0.999713
0.999455
0.999923
0.999743
1.00001
0.999978
1.00002
1.00003
1
1.00001
0.999999
1
0.999999
0.999998
1
0.999999
1
1
1
1
1
1
1
1
1
1
1
1
1
1
1
1
1
1
1
1
1
1
1
1
1
1
1
1
1
1
1
1
1
1
1
1
1
1
1
1
1
1
1
1
1
1
1
1
1
1
1
1
1
1
1
1
1
1
1
1
1
1
1
1
1
1
1
1
1
1
1
1
1
1
1
1
1
1
1
1
1
1
1
1
1
1
1
1
1
1
1
1
1
1
1
1
1
1
1
1
1
1
1
1
1
1
1
1
1
1
1
1
1
1
1
1
1
1
1
1
1
1
1
1
1
1
1
1
1
1
1
1
1
1
1
1
1
1
1
1
1
1
1
1
1
1
1
1
1
1
1
1
1
1
1
1
1
1
1
1
1
1
1
1
1
4.74929e-32
-1.11632e-05
3.27925e-13
4.73386e-36
0.0108455
1.42476e-11
-3.23756e-09
2.78352e-09
1.07784e-06
6.55844e-08
-4.30315e-08
-2.53936e-08
5.86964e-09
8.24713e-09
7.47404e-09
0.0032765
0.00781329
-1.9338e-10
-8.49957e-11
-2.19233e-38
3.38049e-11
3.9135e-11
0.00470079
-2.28103e-12
4.5176e-14
5.51421e-14
-1.30508e-14
9.19085e-16
2.35301e-16
-7.80526e-17
8.37538e-18
7.53382e-19
-4.7815e-19
8.22946e-20
-4.44859e-23
-4.59909e-21
1.46191e-21
1.51375e-22
-1.29289e-22
-2.04111e-23
5.68877e-24
1.48244e-24
-1.56203e-26
-5.92182e-26
-5.59984e-27
6.86931e-28
2.36895e-28
1.54924e-29
-2.64978e-30
-6.4913e-31
-3.3659e-32
6.0644e-33
1.30429e-33
7.55612e-35
-6.3224e-36
-1.57237e-36
-1.39754e-37
-1.66997e-05
-2.49828e-05
1.11544e-33
-3.29573e-35
8.46753e-36
1.09763e-35
-4.71064e-34
8.57181e-34
2.87681e-33
9.15863e-34
6.42637e-32
-7.60749e-37
8.25423e-36
3.29724e-31
-7.26964e-30
8.20618e-29
-4.18719e-27
-1.97307e-26
-2.11745e-25
1.80366e-24
4.09133e-23
4.30666e-23
-1.68779e-21
5.04695e-21
1.8415e-19
-1.5215e-18
-1.17921e-17
5.93124e-17
7.33191e-16
3.91383e-15
-1.90771e-14
-6.94124e-14
2.0516e-13
-1.56431e-12
4.50668e-12
2.93205e-11
2.47884e-10
-7.77306e-10
2.09868e-10
2.03065e-09
-4.84003e-09
1.37426e-08
-8.32015e-09
-1.07486e-07
8.40618e-09
8.48249e-07
1.91067e-06
-7.62151e-07
-2.63678e-05
-6.5679e-05
5.99907e-06
0.000490635
0.00214931
0.00330281
-1.62993e-06
-7.78345e-06
1.07711e-06
1
1
1
1
1
1
1
1
1
1
1
1
1
1
1
1
1
1
1
1
1
1
1
1
1
1
1
1
1
1
1
1
1
1
1
1
1
1
1
1
1
1
1
1
1
1
1
1
1
1
1
1
1
1
1
1
1
1
1
1
1
1
1
1
1
1
1
1
1
1
1
1
0.999999
0.999999
1
1
1
1
1
1
0.999995
0.999996
0.999992
0.999993
0.999995
0.999993
1
0.999996
1.00002
1
1.00005
1.00004
1.0001
1.00009
1.00011
1.00012
1.00005
1.00011
0.999883
1.00002
0.999488
0.999758
0.998716
0.999211
0.997262
0.998083
0.994779
0.996106
0.991243
0.993064
0.986133
0.988825
0.979073
0.982627
0.969634
0.974224
0.956755
0.962887
0.940451
0.947879
0.921078
0.929986
0.898115
0.908556
0.871362
0.88312
0.840994
0.854099
0.807242
0.821695
0.770105
0.785849
0.729614
0.746643
0.68702
0.704487
0.64335
0.661441
0.597225
0.615955
0.550977
0.569494
0.505251
0.522709
0.460059
0.47811
0.415524
0.432786
0.372965
0.389631
0.332004
0.347789
0.293866
0.308504
0.258644
0.271982
0.22539
0.237935
0.195578
0.206855
0.168061
0.178103
0.143977
0.152857
0.122523
0.130129
0.10377
0.110674
0.0871596
0.0931193
0.0726625
0.0777651
0.0601163
0.0645715
0.0493878
0.0531374
0.040338
0.0435195
0.0325915
0.0353008
0.0259082
0.0281342
0.0205107
0.0222588
0.016123
0.0174178
3.09839e-05
-1.13942e-05
0.00568377
-0.00459306
-4.40635e-10
-5.18254e-10
-0.000867393
7.78045e-05
0.00764771
-2.66297e-39
0.572277
-1.45901e-38
-5.44322e-34
0.872928
0.0108615
1.42844e-09
9.19174e-11
6.45133e-07
-8.21647e-08
-6.03906e-35
1.50348e-06
5.74375e-11
0.00574209
-1.29075e-14
-8.77929e-13
1.70691e-13
-8.66705e-15
-3.5678e-15
1.00322e-15
-9.17867e-17
-1.43485e-17
6.0321e-18
-8.17137e-19
-3.12246e-20
4.06523e-20
-9.51026e-21
1.94999e-22
8.37705e-22
-1.22213e-22
-7.0203e-23
1.80796e-24
3.60393e-24
3.91893e-25
-9.39353e-26
-2.36033e-26
-1.65294e-28
5.08497e-28
7.87309e-29
-1.09828e-30
-1.60158e-30
-1.91774e-31
3.18974e-33
3.30187e-33
3.80024e-34
3.3296e-36
-4.0079e-36
-5.29067e-37
6.53321e-12
-1.74491e-37
0.00481936
0.0179633
-0.003371
-3.05617e-35
-6.2451e-35
-3.05584e-39
0.921152
1.95546e-30
7.21527e-31
-2.66099e-31
-1.26019e-29
-2.69578e-31
6.5264e-30
4.95725e-28
1.04849e-26
9.85419e-26
3.68207e-26
-1.22708e-23
-7.56113e-23
4.3532e-22
2.57557e-21
-5.47237e-20
-1.36016e-19
6.7404e-18
-3.49266e-18
-2.05678e-16
-2.28582e-15
4.00091e-16
5.78853e-14
-6.57777e-14
3.14586e-13
9.2084e-13
-1.12657e-11
-1.09037e-10
-6.10974e-11
1.53113e-09
-2.82974e-09
-1.41942e-09
1.43093e-08
-1.36937e-08
-8.55302e-09
-1.70826e-07
2.27395e-07
1.40373e-06
2.73623e-06
-1.02481e-05
-5.13684e-05
-6.08801e-05
0.000163679
0.00117423
0.000195338
1.86266e-29
0.0127693
0.0738136
0.000138865
0.00212012
0.000447804
-1.24497e-05
-7.02736e-05
-2.53636e-05
2.56031e-07
2.03928e-06
7.94237e-07
-3.23889e-08
-1.02219e-07
-8.42857e-09
1.60248e-08
-5.50476e-09
1.50514e-09
5.51627e-10
-8.18428e-10
2.24286e-10
2.56197e-11
4.19895e-12
-1.53467e-12
2.32659e-13
-3.93801e-14
-2.24376e-14
3.26878e-15
8.09073e-16
8.00553e-17
-8.80849e-18
-1.82774e-18
1.86129e-19
1.07173e-20
-1.59547e-21
-8.89363e-24
-4.75896e-37
-4.62319e-36
-1.00919e-35
2.95718e-34
3.66366e-33
1.27474e-32
-1.42259e-31
-1.82442e-30
-5.22994e-30
6.27072e-29
6.33027e-28
1.09014e-27
-2.09569e-26
-1.48327e-25
1.56786e-25
4.23234e-24
1.10455e-23
-6.82267e-23
-2.95146e-22
6.34363e-22
2.84707e-21
-1.15548e-20
1.72497e-20
1.26736e-19
-1.17607e-18
3.92722e-18
7.54722e-18
-1.73449e-16
8.45465e-16
-6.18079e-18
-2.72103e-14
-1.09124e-07
-6.80647e-10
0.00113041
0.000138025
-7.05966e-05
-5.19212e-05
-8.98586e-06
3.08994e-06
1.43877e-06
1.79909e-07
-1.85574e-07
-7.03787e-09
-9.81447e-09
1.25728e-08
-1.07513e-09
-2.7048e-09
1.32512e-09
7.83214e-12
-1.08773e-10
-8.35585e-12
7.25286e-13
3.46613e-13
-1.22254e-13
5.19219e-14
2.4311e-15
-2.3045e-15
-2.42104e-16
-1.3742e-17
6.66216e-18
-2.78715e-20
-6.4039e-20
1.19959e-21
5.00377e-22
-0.00678227
-0.0031757
-0.00995505
-6.1563e-23
-1.3572e-23
-1.39878e-25
9.68184e-26
1.07677e-26
9.36907e-28
-1.53616e-36
-9.70825e-36
3.83429e-35
1.25319e-33
8.59512e-33
-7.48813e-33
-6.30182e-31
-3.90832e-30
5.14514e-30
2.43224e-28
1.18066e-27
-2.69582e-27
-6.82939e-26
-1.67794e-25
1.34707e-24
9.08681e-24
-5.70634e-24
-1.77735e-22
-1.63691e-22
2.1294e-21
-1.22939e-21
-1.62628e-20
1.02144e-19
-2.63906e-19
-1.01173e-18
1.36887e-17
-5.87271e-17
-4.48554e-17
2.0899e-15
-1.16426e-14
7.89343e-15
2.8986e-13
-2.47503e-12
-2.38532e-38
0.64697
-1.85649e-37
3.93953e-07
-1.16855e-07
-2.05458e-38
1.64772e-13
-3.26584e-13
-3.84301e-12
-1.03935e-37
-1.12096e-36
4.02381e-23
2.54157e-24
-1.67385e-25
-2.171e-26
1.20102e-31
-5.10274e-27
1.24917e-30
0.00045649
-8.04472e-08
0.00296007
4.55648e-23
1.00293
1.00828
1.01211
1.00307
1.00796
1.00022
1.00185
0.999626
0.999683
0.999808
0.999572
0.999981
0.999882
1.00002
1.00002
1.00001
1.00003
1
1.00001
0.999999
0.999999
0.999999
0.999998
1
0.999999
1
1
1
1
1
1
1
1
1
1
1
1
1
1
1
1
1
1
1
1
1
1
1
1
1
1
1
1
1
1
1
1
1
1
1
1
1
1
1
1
1
1
1
1
1
1
1
1
1
1
1
1
1
1
1
1
1
1
1
1
1
1
1
1
1
1
1
1
1
1
1
1
1
1
1
1
1
1
1
1
1
1
1
1
1
1
1
1
1
1
1
1
1
1
1
1
1
1
1
1
1
1
1
1
1
1
1
1
1
1
1
1
1
1
1
1
1
1
1
1
1
1
1
1
1
1
1
1
1
1
1
1
1
1
1
1
1
1
1
1
1
1
1
1
1
1
1
1
1
1
1
1
1
1
1
1
1
1
1
0.698875
1
-3.42982e-38
0.113514
-2.59409e-37
0.0091703
0.228572
5.73605e-09
-1.50644e-10
5.09911e-07
-2.28502e-08
-4.8178e-34
-4.40343e-10
-4.58045e-10
1.22949e-06
1.81553e-06
1.39007e-06
-4.75399e-37
9.17726e-12
-2.1295e-12
3.98611e-09
2.7054e-07
-1.14256e-07
1.76621e-13
-1.49875e-14
-2.06534e-15
9.01058e-16
-1.13768e-16
-5.49124e-18
5.10194e-18
-9.52858e-19
4.33804e-20
3.58699e-20
-1.31965e-20
8.89776e-22
1.2479e-21
-6.9474e-23
-9.04161e-23
-4.28204e-24
3.12372e-24
6.36005e-25
-3.64885e-26
-2.28678e-26
-1.95039e-27
2.7441e-28
7.42319e-29
4.25743e-30
-8.37886e-31
-1.94114e-31
-1.21815e-32
1.36745e-33
3.22952e-34
1.78188e-35
3.05877e-11
3.002e-11
0.00616751
-0.00734108
1.06558e-35
-5.91547e-27
0.00719926
-2.84e-31
-2.24532e-29
-0.000126951
-1.20504e-36
-5.55577e-29
9.39641e-28
1.43993e-27
-6.94336e-27
-1.99082e-26
-2.19086e-25
2.09165e-24
-1.28844e-23
-1.45007e-23
4.17028e-23
-8.81507e-37
-9.05741e-37
5.21932e-23
-1.73821e-21
1.03327e-20
2.45486e-19
-1.52018e-18
-1.27393e-17
9.56748e-17
8.81541e-16
5.07138e-15
-2.24189e-14
-7.46553e-14
3.7983e-13
-2.12494e-12
3.27759e-12
2.45938e-11
3.33957e-10
-8.54906e-10
-3.60593e-10
3.02765e-09
-4.78273e-09
1.33669e-08
-6.52133e-09
-1.64304e-07
6.8932e-08
1.21389e-06
2.64892e-06
-2.55851e-06
-3.91958e-05
-8.46953e-05
3.65593e-05
0.000741835
-6.08698e-35
-5.45385e-34
5.98651e-29
7.43112e-29
-1.52435e-28
1
0.463712
1
1
1
1
1
1
1
1
1
1
1
1
1
1
1
1
1
1
1
1
1
1
1
1
1
1
1
1
1
1
1
1
1
1
1
1
1
1
1
1
1
1
1
1
1
1
1
1
1
1
1
1
1
1
1
1
1
1
1
1
1
1
1
1
1
1
0.999999
1
0.999999
0.999999
1
1
1
1
0.999999
1
0.999995
0.999996
0.999994
0.999994
0.999996
0.999995
1
0.999995
1.00001
1
1.00005
1.00003
1.00009
1.00008
1.00011
1.00011
1.00007
1.00012
0.999938
1.00006
0.999612
0.999849
0.99893
0.999373
0.997561
0.998379
0.995325
0.996564
0.992107
0.993886
0.987404
0.989996
0.98085
0.984296
0.97186
0.976461
0.959402
0.965574
0.943897
0.951088
0.92546
0.934277
0.902921
0.913329
0.87705
0.888582
0.847459
0.860908
0.814197
0.829015
0.777789
0.793843
0.737933
0.755461
0.695872
0.713834
0.652825
0.671318
0.606188
0.625773
0.56007
0.5788
0.513922
0.532701
0.468406
0.487076
0.42433
0.442154
0.381767
0.39919
0.340112
0.356365
0.301783
0.316951
0.265578
0.279863
0.23162
0.244738
0.201747
0.213178
0.17327
0.184159
0.148368
0.157569
0.126416
0.134645
0.107111
0.11448
0.0901479
0.096413
0.0754154
0.0810262
0.062113
0.0669345
0.0512849
0.0552441
0.0420417
0.0454981
0.0339254
0.0368246
0.0268998
0.029233
0.0212794
0.0232749
0.016387
0.0180292
0.000126296
0.000292128
0.000347145
0.000322973
0.756643
-8.05266e-23
-9.14856e-24
-9.36128e-35
-8.18442e-35
-1.85901e-10
-7.56029e-10
0.00436468
0.00440629
0.00634024
0.00167765
0.00294786
5.07333e-36
-9.64705e-35
3.02738e-30
-2.93051e-29
-2.29042e-37
-5.3637e-37
1.03633e-35
1.80407e-13
3.62388e-13
-0.00272339
-0.00153449
1.28323e-35
-1.66441e-36
-2.94696e-37
3.81703e-33
1.53895e-33
1.89631e-33
0.00956847
-5.78558e-11
1.39309e-11
1.20714e-21
3.43329e-22
-1.82289e-05
0.0135607
2.00754e-09
3.51159e-21
-7.06367e-21
1.26142e-09
9.46367e-09
2.4571e-12
-1.47908e-12
-1.0652e-18
-3.74529e-19
0.00160889
1.31172e-17
1.01826e-17
-3.92709e-12
-5.31159e-13
3.84933e-14
-1.22048e-14
1.34818e-15
1.22811e-16
-6.78154e-17
1.3027e-17
9.75805e-20
-1.11071e-19
9.99759e-20
-2.54727e-20
-5.27754e-21
2.12606e-21
5.8355e-23
-1.40173e-22
-3.25599e-23
3.46525e-24
1.72812e-24
1.16084e-25
-4.40013e-26
-8.25368e-27
-2.08158e-29
1.71407e-28
2.33599e-29
-4.61365e-31
-4.62389e-31
-5.97973e-32
-1.20987e-34
7.98066e-34
8.99565e-35
5.21809e-11
1.07207e-36
0.00759863
-1.63563e-16
2.42589e-13
1.7217e-13
3.07861e-14
1.50414e-13
6.46992e-16
1.07593e-15
0.0122752
0.935175
4.57173e-32
6.10508e-32
-2.78226e-31
-0.00740284
5.97709e-09
0.96961
-6.11122e-23
-1.32393e-36
0.80381
-4.1227e-32
1.32378e-26
9.60433e-26
-6.27044e-27
5.11488e-22
3.96148e-22
0.0569193
-1.63467e-21
0.202537
1.93995e-21
-5.9513e-20
-2.5615e-19
7.37111e-18
-9.72803e-18
-2.6447e-16
-2.84692e-15
-3.99049e-16
5.93407e-14
-1.16999e-13
-2.08975e-12
2.39055e-12
-8.52178e-12
-1.30969e-10
-1.9367e-10
2.08588e-09
-3.34875e-09
-3.15248e-09
2.06612e-08
-1.95857e-08
-2.39642e-08
-2.04546e-07
3.72136e-07
1.91608e-06
3.30551e-06
-1.63359e-05
-7.07477e-05
-6.7613e-05
0.000268541
7.80514e-10
-7.70529e-06
-2.00856e-05
-3.86177e-06
3.07324e-33
7.04991e-05
3.362e-06
0.266977
0.000699183
1.23177e-05
-9.18692e-05
-3.84868e-05
-1.34844e-06
2.84816e-06
1.16595e-06
1.76771e-08
-1.59299e-07
-6.95591e-09
1.67358e-08
-5.55763e-09
2.39957e-09
1.04188e-10
-9.0783e-10
3.04146e-10
2.17878e-11
4.16501e-13
-3.90556e-14
6.94722e-35
8.86914e-34
2.15237e-33
-4.84743e-32
3.17962e-21
-5.27186e-31
-1.53089e-30
1.85022e-29
1.99668e-28
4.21081e-28
-7.23567e-27
-5.9441e-26
6.48721e-27
1.89669e-24
6.85229e-24
-2.37637e-23
0.000234989
-8.22366e-05
-7.22558e-05
-1.45934e-05
3.85071e-06
1.9873e-06
3.11497e-07
-2.30666e-07
-1.99011e-08
-1.51914e-08
1.89639e-08
-2.61397e-09
-3.3296e-09
1.87811e-09
-1.02583e-10
-1.28721e-10
-5.39877e-12
-0.000567361
-0.00980062
1.9904e-12
-1.87995e-13
5.65179e-14
2.02609e-15
-2.82235e-15
-3.03785e-16
-2.2058e-17
-4.26621e-17
7.29459e-18
-1.40413e-19
-7.38523e-20
9.02419e-26
-3.19716e-31
1.29372e-26
1.06583e-35
3.05499e-34
1.99539e-33
-6.29412e-33
-1.91675e-31
-1.17002e-30
1.42906e-30
7.27597e-29
4.10953e-28
-1.00573e-27
-2.42568e-26
-8.61995e-26
5.17697e-25
4.20834e-24
2.91615e-24
-1.01231e-22
-1.15289e-16
2.12102e-15
2.44895e-19
-1.51789e-20
-2.63223e-22
-1.86841e-12
1.7602e-19
-9.35099e-15
2.73325e-18
-6.05381e-15
-2.72805e-14
-1.46648e-18
1.02966e-19
-9.13504e-22
4.11003e-21
-2.16174e-22
-2.44097e-14
4.30756e-15
9.66092e-16
1.16774e-16
-8.84447e-18
-1.86776e-18
1.54662e-20
2.61831e-24
-1.69151e-25
-1.82406e-26
4.7097e-30
-2.17774e-25
2.83407e-22
2.72464e-12
-2.2925e-05
-2.70647e-12
0.000244632
1.00755
1.00503
1.00848
1.00124
1.00397
0.999701
1.00032
0.999651
0.999415
0.999889
0.999679
1.00001
0.99995
1.00002
1.00003
1.00001
1.00002
1
1
0.999999
0.999998
0.999999
0.999999
1
1
1
1
1
1
1
1
1
1
1
1
1
1
1
1
1
1
1
1
1
1
1
1
1
1
1
1
1
1
1
1
1
1
1
1
1
1
1
1
1
1
1
1
1
1
1
1
1
1
1
1
1
1
1
1
1
1
1
1
1
1
1
1
1
1
1
1
1
1
1
1
1
1
1
1
1
1
1
1
1
1
1
1
1
1
1
1
1
1
1
1
1
1
1
1
1
1
1
1
1
1
1
1
1
1
1
1
1
1
1
1
1
1
1
1
1
1
1
1
1
1
1
1
1
1
1
1
1
1
1
1
1
1
1
1
1
1
1
1
1
1
1
1
1
1
1
1
1
1
1
1
1
1
1
1
-2.55829e-19
-3.92477e-10
2.99427e-33
-2.89806e-13
3.20666e-34
-2.96689e-37
-1.25157e-25
2.75536e-23
-3.18978e-08
-8.15169e-23
5.61561e-22
3.67013e-22
1.04998e-19
2.41874e-21
-1.74106e-14
1.37648e-13
2.26155e-13
3.31335e-13
-7.21801e-19
1.43431e-15
3.45785e-18
6.99002e-19
1.55097e-14
9.5293e-14
-1.88068e-14
1.03974e-17
1.06428e-17
2.99816e-19
-6.4772e-16
1.7927e-15
-1.22805e-13
8.17721e-18
2.91852e-18
1.685e-17
4.17923e-12
-1.76197e-12
1.02789e-19
2.78358e-20
2.11711e-19
-9.65146e-19
-8.65451e-19
0.0023756
-1.79531e-20
-5.90999e-32
1.58173e-21
3.7595e-21
1.72357e-21
-2.37479e-14
0.000432606
-8.8991e-23
-9.86088e-24
2.16814e-24
6.66053e-25
2.37708e-26
-1.59055e-26
-2.45142e-27
3.25019e-29
5.77205e-29
6.39205e-30
1.20427e-30
5.82073e-31
6.79018e-22
4.33499e-21
-1.1723e-31
-1.40256e-32
-3.51567e-35
4.85367e-34
-7.62586e-11
0.568575
0.243387
0.00922002
-1.91759e-13
4.11444e-12
5.52244e-30
1.09362e-17
-0.00767335
1.70708e-26
-1.43788e-08
0.00112383
0.00230643
2.87271e-36
9.89229e-22
6.41156e-35
-3.40624e-31
7.37359e-30
-2.20632e-25
-3.81105e-25
4.22789e-22
0.0253249
-1.78497e-21
-1.64985e-21
-9.18798e-22
8.80802e-26
-1.47699e-25
-1.64217e-20
-3.84092e-20
-7.73372e-20
2.98443e-19
1.45118e-20
-9.59219e-20
-1.45739e-18
8.12347e-18
-1.71702e-17
-3.63518e-16
-3.39044e-15
-1.46242e-15
-2.79505e-14
1.76422e-34
1.94539e-34
-7.68485e-14
-2.83316e-13
-2.57818e-12
3.49788e-12
-1.90148e-12
-4.3352e-12
-1.43101e-12
6.33805e-13
-1.08771e-14
-4.81777e-12
-1.44993e-10
-3.91784e-10
2.84406e-09
-3.80568e-09
-5.5347e-09
2.99608e-08
-2.69506e-08
-5.1691e-08
-2.30089e-07
5.86956e-07
2.65415e-06
3.75094e-06
-2.55721e-05
-9.71499e-05
-7.04452e-05
9.02003e-05
0.000385375
5.09085e-09
-8.96843e-08
1
1
1
1
1
1
1
1
1
1
1
1
1
1
1
1
1
1
1
1
1
1
1
1
1
1
1
1
1
1
1
1
1
1
1
1
1
1
1
1
1
1
1
1
1
1
1
1
1
1
1
1
1
1
1
1
1
1
1
1
1
1
1
1
1
0.999999
1
1
0.999999
1
1
1
1
0.999999
1
0.999995
0.999997
0.999996
0.999996
0.999997
0.999996
0.999997
0.999993
1.00001
0.999996
1.00004
1.00002
1.00008
1.00006
1.0001
1.0001
1.00009
1.00012
1
1.0001
0.999737
0.999948
0.99914
0.999531
0.997926
0.998703
0.995963
0.99714
0.993081
0.99482
0.988884
0.991259
0.982852
0.986177
0.974273
0.978748
0.962489
0.968601
0.947767
0.954933
0.930405
0.938967
0.908595
0.919337
0.883083
0.895118
0.854874
0.868556
0.822947
0.837883
0.786835
0.803387
0.747946
0.765265
0.70694
0.725362
0.663531
0.682317
0.617315
0.638193
0.57049
0.590512
0.524706
0.545143
0.47898
0.498129
0.43534
0.453806
0.392025
0.409979
0.349708
0.36746
0.310282
0.326127
0.274555
0.289177
0.239485
0.253684
0.20817
0.220258
0.179557
0.191428
0.153605
0.163777
0.131246
0.140248
0.111485
0.119196
0.0941738
0.101025
0.0786401
0.0845532
0.0650325
0.0703483
0.0535397
0.0577752
0.0442946
0.0478873
0.035656
0.0389635
0.0279215
0.030628
0.0223208
0.0244395
0.0173664
0.0193237
4.27573e-23
5.69245e-22
2.42574e-11
1.84423e-11
-1.25955e-34
1.20368e-09
4.45597e-09
9.37408e-11
-4.1231e-34
-6.10547e-34
2.37837e-33
-4.94977e-17
-2.15602e-17
-1.47537e-34
-1.62195e-34
3.88183e-37