/*--------------------------------*- C++ -*----------------------------------*\
  =========                 |
  \\      /  F ield         | OpenFOAM: The Open Source CFD Toolbox
   \\    /   O peration     | Website:  https://openfoam.org
    \\  /    A nd           | Version:  7
     \\/     M anipulation  |
\*---------------------------------------------------------------------------*/
FoamFile
{
    version     2.0;
    format      ascii;
    class       volScalarField;
    location    "0.44";
    object      T;
}
// * * * * * * * * * * * * * * * * * * * * * * * * * * * * * * * * * * * * * //

dimensions      [0 0 0 1 0 0 0];

internalField   nonuniform List<scalar> 
45544
(
0
0
0
0
0
0
0
0
0
0
0
0
0
0
0
0
0
0
0
0
0
0
0
0
0
0
0
0
0
0
0
0
0
0
0
0
0
0
0
0
0
0
0
0
0
0
0
0
0
0
0
0
0
0
0
0
0
0
0
0
0
0
0
0
0
0
0
0
0
0
0
0
0
0
0
0
0
0
0
0
0
0
0
0
0
0
0
0
0
0
0
0
0
0
0
0
0
0
0
0
0
0
0
0
0
0
0
0
0
0
0
0
0
0
0
0
0
0
0
0
0
0
0
0
0
0
0
0
0
0
0
0
0
0
0
0
0
0
0
0
0
0
0
0
0
0
0
0
0
0
0
0
0
0
0
0
0
0
0
0
0
0
0
0
0
0
0
0
0
0
0
0
0
0
0
0
0
0
0
0
0
0
0
0
0
0
0
0
0
0
0
0
0
0
0
0
0
0
0
0
0
0
0
0
0
0
0
-4.48644e-40
-7.37056e-34
-5.36671e-32
-1.80648e-29
-1.07225e-28
1.87661e-29
7.28865e-28
3.62869e-27
3.12852e-27
1.45457e-27
4.77752e-27
7.09288e-27
1.20271e-26
1.79782e-26
2.64344e-26
4.2106e-26
-5.00938e-25
5.94368e-25
5.29803e-24
5.66442e-24
1.24002e-23
-5.15191e-24
-5.85301e-24
-1.37369e-23
-5.00443e-23
-5.17987e-23
-5.67903e-23
-3.7607e-23
-4.34421e-23
-1.731e-22
-1.12619e-22
-1.53934e-22
-2.04776e-22
-1.79255e-22
-8.08124e-23
2.99511e-23
2.24468e-22
3.21946e-22
2.3037e-22
2.95681e-22
2.57709e-22
2.30874e-22
1.61189e-22
6.43785e-23
-6.70709e-23
-6.36824e-23
-7.76516e-23
-6.53599e-23
-5.97453e-23
-3.95879e-23
-3.03966e-23
-2.0478e-23
-3.65539e-24
-1.8797e-24
8.62852e-26
1.83495e-24
2.28392e-24
2.09474e-24
1.5776e-24
1.16013e-24
5.28936e-25
3.52321e-25
1.25025e-25
5.99962e-26
1.07122e-26
-1.28611e-26
-1.41545e-26
-1.23623e-26
-1.12381e-26
-7.82467e-27
-5.43897e-27
-3.4934e-27
-2.07235e-27
-8.85555e-28
-5.23815e-28
-2.59735e-28
-9.28574e-29
-4.411e-29
-3.91168e-30
-4.72232e-31
9.28369e-31
4.84297e-30
3.55533e-30
2.75428e-30
1.53068e-30
9.09281e-31
5.38077e-31
3.07134e-31
1.77058e-31
6.93886e-32
-1.34389e-31
3.20988e-28
0
0
0
0
0
0
0
0
0
0
0
0
0
0
0
0
0
0
0
0
0
0
0
0
0
0
0
0
0
0
0
0
0
0
0
0
0
0
0
0
0
0
0
0
0
0
0
0
0
0
0
0
0
0
0
0
0
0
0
0
0
0
0
0
0
0
0
0
0
0
0
0
0
0
0
0
0
0
9.96576e-123
0
-3.08699e-120
-4.00661e-120
-3.16372e-119
6.26402e-119
-2.7791e-117
-4.03912e-117
-1.22299e-115
1.099e-115
2.03691e-112
2.57901e-112
2.04869e-112
2.58136e-112
1.31595e-112
1.63184e-112
2.683e-112
1.13919e-112
2.58454e-110
2.81991e-110
1.47938e-110
1.40165e-110
1.50364e-109
-4.84482e-109
1.9923e-108
1.48582e-108
2.39146e-108
2.29051e-108
3.0305e-108
2.38617e-108
2.53436e-108
1.44759e-109
1.3439e-107
1.48975e-107
1.62876e-107
1.69365e-107
1.10889e-107
1.11106e-107
6.26216e-107
-4.58855e-108
1.95347e-104
2.14902e-104
1.44434e-104
6.56473e-105
-8.09732e-105
3.22479e-106
-6.33794e-102
-1.10529e-101
5.74595e-100
-2.54185e-99
4.79119e-98
-8.78162e-99
2.92703e-97
-1.00765e-97
5.65777e-95
5.03666e-95
1.61801e-94
1.83907e-94
1.03964e-94
1.16303e-94
1.7199e-94
-2.79527e-94
1.68925e-93
1.49265e-93
2.56443e-93
2.26771e-93
7.39365e-93
4.43098e-93
3.35159e-91
-6.30639e-92
3.65223e-89
3.69367e-89
2.4273e-89
2.27799e-89
2.43243e-89
-2.06083e-89
1.33234e-88
1.20811e-88
2.15083e-88
1.23047e-88
-1.70799e-86
5.94276e-87
-1.15039e-84
-1.08077e-84
-9.74154e-85
-1.26183e-84
3.22927e-84
-1.38489e-83
1.69702e-83
-1.91316e-83
2.52452e-83
-8.08524e-84
5.42649e-83
-5.94313e-83
1.00255e-82
-1.33058e-82
3.35319e-82
2.37339e-82
4.16651e-82
-4.67078e-82
7.18603e-82
-2.27968e-83
5.60948e-82
3.80266e-83
4.65476e-82
-8.28975e-83
7.26018e-82
-1.35001e-81
3.79534e-81
-3.26933e-82
1.92613e-80
1.44159e-80
4.71301e-80
3.09457e-80
3.45989e-80
2.20859e-80
2.52162e-80
1.42041e-80
4.98079e-80
1.2213e-80
8.48517e-80
6.72417e-80
5.53433e-80
3.51179e-80
1.12729e-79
-2.14012e-79
4.0252e-79
-5.98197e-80
4.14679e-79
-2.19584e-79
4.07733e-79
-1.89443e-79
4.62461e-79
-4.51801e-79
2.43148e-78
7.49571e-79
1.02033e-77
-1.63657e-78
8.37837e-78
-6.24791e-79
6.89993e-78
-1.05113e-79
5.67414e-78
-2.00643e-79
1.88518e-77
-6.66671e-80
3.41916e-77
2.39308e-77
2.36956e-77
1.47978e-77
2.07434e-77
-1.63718e-78
3.17643e-77
5.76254e-78
3.31861e-77
1.51374e-77
3.56598e-77
6.62203e-78
3.45225e-77
-1.62142e-77
4.28934e-77
-2.22621e-78
6.86282e-77
-4.10139e-77
5.95139e-77
-1.35977e-77
7.10235e-77
3.08821e-77
5.29585e-77
2.61505e-77
4.07392e-77
1.48319e-77
7.87555e-77
6.14629e-77
5.29116e-77
3.73479e-77
4.61189e-77
-3.7709e-78
5.77717e-77
2.54831e-79
5.65896e-77
1.39272e-77
5.35772e-77
3.90167e-78
5.05763e-77
-2.19417e-77
5.072e-77
-1.71602e-77
5.47147e-77
-3.80033e-77
5.36528e-77
-1.13577e-77
4.71485e-77
4.03257e-80
3.93307e-77
-2.67392e-78
3.48532e-77
3.44199e-78
3.1082e-77
6.91289e-78
3.16602e-77
-2.12748e-77
4.34875e-77
9.09405e-78
3.72084e-77
-1.06932e-78
2.98572e-77
9.37687e-79
3.83914e-77
-7.75234e-78
4.64206e-77
1.70052e-77
3.38598e-77
1.04152e-77
2.80142e-77
1.79295e-78
2.59743e-77
6.30014e-78
2.39462e-77
6.2616e-78
2.31231e-77
3.11378e-78
1.95087e-77
-1.4533e-78
1.51588e-77
6.20781e-79
1.2307e-77
-6.18284e-79
9.97084e-78
6.80056e-79
1.11906e-77
3.364e-78
8.4169e-78
3.062e-78
8.79117e-78
9.79675e-79
9.18144e-78
4.14563e-78
6.47142e-78
2.39412e-78
5.09208e-78
8.91229e-79
3.93835e-78
8.50992e-80
3.00513e-78
1.27046e-79
2.09332e-78
-6.67447e-80
1.67148e-78
4.17622e-79
-1.23155e-78
-2.54877e-78
-6.88307e-79
-1.69693e-78
-1.27925e-78
-1.94545e-78
-1.53522e-78
-2.26219e-78
-9.27008e-79
-1.46927e-78
-6.22615e-79
-8.15432e-79
-3.38655e-78
-3.98182e-78
-2.17585e-78
-2.6154e-78
-1.53887e-78
-1.08154e-78
-1.93121e-78
-1.64875e-78
-1.73597e-78
-1.75377e-78
-1.28986e-78
-1.33788e-78
-8.69725e-79
-8.32439e-79
-1.23563e-78
-1.42353e-78
-8.03055e-79
-8.17637e-79
-7.25739e-79
-7.56062e-79
-4.88201e-79
-5.24327e-79
-3.15232e-79
-3.36354e-79
-2.06328e-79
-2.20162e-79
-2.02098e-79
-2.32071e-79
-4.77462e-79
1.10222e-79
1.09717e-74
-1.07528e-76
3.25527e-73
-5.93559e-73
-2.46238e-70
-1.90152e-70
-1.73773e-68
-1.09237e-68
-4.06705e-68
-4.86393e-68
-2.46133e-68
-3.69711e-68
3.25669e-67
1.31581e-67
1.44699e-64
3.26661e-65
-1.45959e-63
-7.24191e-63
-1.14601e-60
-1.28941e-60
-8.3548e-61
-4.06158e-60
-1.71661e-58
8.39718e-58
-1.21318e-56
4.39532e-58
-8.74743e-56
-1.01732e-26
-8.09363e-25
1.14024e-22
-6.43631e-21
-1.74068e-19
3.91164e-18
1.30684e-16
1.21887e-15
5.34529e-15
1.42696e-14
2.49874e-14
3.35747e-14
3.82135e-14
4.01916e-14
4.12319e-14
4.23093e-14
4.35653e-14
4.28855e-14
3.80529e-14
2.9517e-14
1.9976e-14
1.1848e-14
6.07682e-15
2.79036e-15
1.11145e-15
3.91669e-16
1.2534e-16
3.28244e-17
6.55732e-18
8.93248e-19
5.92997e-20
-3.22005e-22
-2.7003e-22
-1.57416e-24
7.15606e-25
-1.30312e-26
-5.88656e-28
3.40421e-29
-8.4388e-31
1.58459e-32
-3.06662e-34
8.48783e-36
-1.81183e-37
1.18961e-39
5.18225e-41
-8.5996e-43
-8.81401e-45
-1.36602e-47
-2.94022e-51
4.76086e-07
-9.888e-07
-4.07627e-07
6.61827e-07
-1.70047e-07
-3.59212e-08
6.37693e-07
-1.24909e-06
-5.09427e-07
-1.35234e-06
-1.15666e-06
-3.42493e-07
-9.03357e-07
1.60368e-06
6.82545e-07
1.35885e-06
1.81366e-06
-6.45296e-07
8.58732e-07
-5.05247e-06
-2.02518e-06
-7.4394e-06
-6.12998e-06
-5.1365e-06
-7.16503e-06
1.90624e-06
-4.52622e-06
1.26498e-05
2.07465e-06
2.14473e-05
7.50222e-06
1.86565e-05
2.45323e-06
-1.05182e-05
-2.26206e-05
-8.08733e-05
-5.89109e-05
-0.000155633
-0.000130961
-3.0396e-05
-0.000362804
-0.000244529
-0.000454084
-0.000625646
-0.000268006
-0.000478473
-0.00026012
-0.000341423
-0.000499686
-0.000528023
-0.00046427
-0.000650802
-0.00021711
-0.000459511
-0.000229952
-0.000305994
-0.00026514
-0.000357002
-0.000290777
-0.000396125
-0.000344664
-0.000438041
-0.000344831
-0.000467966
-0.000271018
-0.000422237
-0.000256762
-0.000365848
-0.000307464
-0.000398305
-0.000362329
-0.000453907
-0.000354452
-0.000490629
-0.000272353
-0.000451964
-0.000247725
-0.000372677
-3.8782e-07
6.72471e-07
-4.92876e-07
5.24782e-07
1.11791e-06
-3.88469e-06
-3.22311e-07
1.29819e-05
-1.08731e-05
-0.000162222
4.34209e-08
-2.34085e-07
-1.17554e-08
-6.82164e-08
-7.16626e-08
-6.56591e-08
-4.23313e-08
-4.8078e-08
-3.74972e-07
1.26379e-07
6.04695e-29
0
0
0
0
0
0
0
0
8.07272e-36
-1.39786e-33
-1.36588e-31
-2.10118e-30
-3.9332e-28
-2.76212e-27
2.28303e-27
1.97792e-27
3.29835e-27
2.87921e-27
2.48257e-27
1.10123e-26
1.53835e-26
3.29207e-26
4.70502e-26
-7.94992e-26
1.04774e-24
4.22163e-24
7.23466e-24
1.29077e-23
3.19976e-24
2.22924e-24
-1.45376e-23
8.63205e-24
-2.35433e-23
8.74282e-24
-4.38316e-24
-1.46495e-22
-9.49394e-23
-1.22986e-22
-7.05485e-23
-2.58778e-22
-2.11801e-22
-1.92767e-22
-1.18486e-22
1.99428e-22
3.08164e-22
2.95089e-22
2.74952e-22
2.6998e-22
2.64183e-22
1.94753e-22
9.69935e-23
5.07276e-24
-5.3149e-23
-7.34363e-23
-6.99751e-23
-6.70708e-23
-5.75054e-23
-4.10396e-23
-2.50852e-23
-1.54453e-23
-2.76654e-24
-1.26904e-24
1.05899e-24
2.10882e-24
2.40304e-24
1.87235e-24
1.29787e-24
9.9883e-25
4.13351e-25
3.10594e-25
7.17775e-26
4.06311e-26
5.03599e-27
-1.11254e-26
-1.21313e-26
-1.17396e-26
-9.12351e-27
-6.58715e-27
-4.28624e-27
-2.58089e-27
-1.66334e-27
-7.03634e-28
-3.39607e-28
-1.94748e-28
-7.3907e-29
-3.13397e-29
-4.68146e-30
2.08511e-31
1.31548e-30
3.62096e-30
2.88886e-30
2.07802e-30
1.17309e-30
7.09934e-31
4.07077e-31
2.29874e-31
1.33099e-31
7.93805e-32
0
-8.1589e-30
0
-1.22693e-26
1.92169e-25
-1.05073e-55
3.3856e-25
-1.23933e-23
4.82746e-22
-4.99487e-20
3.04064e-20
2.92549e-17
4.28408e-16
2.78878e-15
9.14826e-15
1.95639e-14
2.97269e-14
3.62359e-14
3.94586e-14
4.07603e-14
4.16488e-14
4.30529e-14
4.35566e-14
4.10185e-14
3.40523e-14
2.4744e-14
1.56834e-14
8.71821e-15
4.207e-15
1.78962e-15
6.73281e-16
2.26716e-16
6.64194e-17
1.55312e-17
2.56888e-18
2.75488e-19
8.65746e-21
-7.5597e-22
-5.13535e-23
2.15199e-24
8.42068e-26
-5.88989e-27
1.05314e-28
1.18166e-30
-8.50985e-32
1.62434e-33
-2.70631e-35
6.19265e-38
1.64858e-38
-5.12694e-40
1.12525e-42
1.25427e-43
4.42479e-46
2.36432e-49
-3.55249e-08
4.75181e-53
-0.00022308
-0.000152188
-0.000294546
4.29713e-08
3.57226e-08
-6.89728e-07
1.05457e-06
-1.94493e-06
-5.49117e-06
6.93866e-06
1.09715e-05
-7.12669e-05
-8.02507e-08
-0.000256818
-2.86194e-07
-5.26247e-08
-6.60481e-08
-8.52868e-08
-7.01972e-08
-6.78324e-08
-1.52902e-07
5.83558e-08
-4.1089e-07
2.71434e-07
0
0
0
0
0
0
0
7.15447e-37
-4.08803e-33
4.13265e-30
-7.10109e-29
-1.62209e-27
-4.30223e-27
-5.39563e-27
-8.40562e-27
4.9306e-27
5.4698e-27
-1.72679e-26
-1.5812e-26
-2.68001e-26
-5.54878e-26
-6.41004e-27
7.51623e-25
-4.47931e-26
-2.03796e-23
-3.85371e-24
-1.06262e-23
3.16304e-23
4.96045e-23
5.82798e-23
1.26325e-22
-6.47889e-24
-4.40454e-23
-4.97042e-23
5.59502e-23
3.06462e-22
1.47004e-22
4.70109e-22
3.57104e-22
6.19608e-23
2.14504e-23
-2.66834e-22
-4.11844e-22
-3.84903e-22
-5.04058e-22
-3.31641e-22
-4.41571e-22
-1.78009e-22
-1.88518e-22
-7.42162e-23
1.10528e-22
3.30869e-23
5.2224e-23
5.70939e-23
4.8547e-23
2.52174e-23
2.28996e-23
1.54205e-23
-5.21213e-24
2.05774e-24
-8.21676e-26
-1.04738e-24
-1.62959e-25
-3.40436e-25
-3.13045e-25
-3.33271e-25
2.13043e-25
-1.53076e-25
5.01685e-29
-5.1692e-26
1.54612e-26
-4.59356e-27
-1.04749e-26
-4.84919e-27
-3.47262e-28
-1.66351e-27
-9.22842e-28
-8.07481e-28
-5.70634e-28
-5.96346e-28
-3.25668e-29
2.61692e-29
-5.27977e-29
1.72765e-29
6.21769e-30
1.65e-29
1.25173e-29
1.67751e-30
4.28515e-30
2.61739e-30
1.37119e-30
8.42467e-31
3.96342e-31
2.49098e-31
1.37145e-31
7.18425e-32
1.37733e-32
1.81165e-30
2.84401e-22
-1.64957e-20
-2.77131e-19
1.0025e-17
2.49233e-16
2.09256e-15
8.15621e-15
1.9845e-14
3.23406e-14
4.11626e-14
4.56382e-14
4.75531e-14
4.8502e-14
5.01285e-14
5.1209e-14
4.95896e-14
4.24558e-14
3.17641e-14
2.07227e-14
1.18828e-14
5.86624e-15
2.58959e-15
9.8876e-16
3.37643e-16
1.0291e-16
2.52805e-17
4.48781e-18
5.23396e-19
2.11706e-20
-1.17273e-21
-1.15088e-22
3.21482e-24
2.33885e-25
-1.14803e-26
1.36996e-28
5.12544e-30
-2.35323e-31
4.56978e-33
-8.14672e-35
7.04374e-37
2.83629e-38
-1.15524e-39
5.37397e-42
2.73577e-43
9.08501e-46
4.73892e-49
1.23761e-52
3.7953e-07
5.27893e-07
-6.733e-07
1.18522e-06
5.97363e-07
-3.9397e-06
3.50517e-06
2.02731e-05
-1.15617e-05
-0.000163326
-1.61674e-07
1.40367e-07
1.01371e-07
9.41393e-08
1.04031e-07
1.04239e-07
1.4095e-07
9.38855e-08
-4.51236e-08
4.66959e-08
0
0
0
0
0
0
-1.98855e-47
-1.15023e-33
-1.38429e-31
-4.69255e-29
-1.49867e-28
3.34103e-27
-9.47205e-29
-8.70898e-27
-1.82705e-26
-8.69136e-27
-1.46657e-26
-1.39548e-26
-2.20801e-26
-4.28821e-26
-4.08362e-26
-1.01264e-25
1.48742e-24
-2.16465e-24
-7.84527e-24
-4.50933e-23
-1.5543e-23
-5.20083e-23
-3.08452e-23
-6.31252e-24
1.0692e-22
6.9573e-24
1.1849e-22
1.89131e-22
2.43908e-22
2.23077e-22
3.74684e-22
6.24127e-22
2.13104e-22
2.41855e-22
-9.88423e-23
-5.25539e-22
-3.80215e-22
-3.23442e-22
-2.719e-22
-3.64025e-22
-1.10987e-22
-4.24116e-23
3.71545e-25
8.18526e-23
8.86016e-24
6.60025e-23
4.62001e-23
6.76039e-23
2.24871e-23
3.4037e-23
1.31589e-23
-4.22888e-24
1.83733e-24
4.05913e-25
-2.60119e-24
-1.00346e-24
-6.16666e-25
-1.27124e-25
-3.44803e-25
1.92077e-26
-1.27123e-25
-9.7791e-26
-1.27324e-26
-3.7245e-26
-1.10537e-26
-2.02461e-26
-6.85907e-27
9.8616e-28
-2.66878e-27
-6.33949e-28
-9.95556e-28
-7.95084e-28
-6.07012e-28
-5.34697e-29
-6.07277e-29
-5.59549e-29
2.61055e-29
2.10064e-30
2.58206e-29
1.51776e-29
4.54843e-30
6.08691e-30
3.08842e-30
1.76208e-30
1.03641e-30
4.5154e-31
3.10605e-31
1.6526e-31
9.73005e-32
2.17676e-32
-2.54353e-31
5.41854e-19
6.32772e-17
7.81386e-16
4.46288e-15
1.345e-14
2.62955e-14
3.74938e-14
4.38923e-14
4.70328e-14
4.79797e-14
4.92282e-14
5.07821e-14
5.08487e-14
4.66933e-14
3.73667e-14
2.60243e-14
1.59912e-14
8.44894e-15
3.96396e-15
1.61167e-15
5.84155e-16
1.92332e-16
5.27836e-17
1.10152e-17
1.62526e-18
1.23956e-19
9.39485e-22
-5.23071e-22
-9.29903e-24
1.41619e-24
-1.38477e-26
-1.63107e-27
7.2169e-29
-1.5764e-30
2.7945e-32
-5.56953e-34
1.75763e-35
-4.22022e-37
3.9971e-39
9.88646e-41
-2.13929e-42
-1.89699e-44
-2.66809e-47
-6.62862e-51
-3.31024e-55
4.01309e-07
-1.67971e-07
5.20684e-08
1.71307e-06
-1.83117e-06
-2.43978e-06
1.35014e-05
1.22647e-05
-6.77563e-05
-0.000283774
6.18809e-08
1.4735e-07
9.67993e-08
9.94157e-08
1.07228e-07
9.6152e-08
4.52097e-08
2.87166e-07
-1.57623e-07
1.22156e-07
0
-2.32742e-24
-1.043e-19
4.75806e-22
-2.00581e-23
-2.61817e-07
0
0
0
0
0
0
0
0
0
0
0
0
0
0
0
0
0
0
0
0
0
0
0
0
0
0
0
0
0
0
0
0
0
0
0
0
0
0
0
0
0
0
0
0
0
0
0
0
0
0
0
0
0
0
0
0
0
0
0
0
0
0
0
0
0
0
0
0
0
0
0
0
0
0
0
0
0
0
0
0
0
0
0
0
0
0
0
0
0
0
0
0
0
0
0
0
0
0
0
0
0
0
0
0
0
0
0
0
0
0
0
0
0
0
0
0
0
0
0
0
0
0
0
0
0
0
0
0
0
0
0
0
0
0
0
0
0
0
0
0
0
0
0
0
0
0
0
0
0
0
0
0
0
0
0
0
0
0
0
0
0
0
0
0
0
0
0
0
0
0
0
0
0
0
0
0
0
0
0
0
0
0
0
0
0
0
0
0
0
0
0
0
0
0
0
0
-2.79011e-24
3.77767e-25
7.30318e-25
3.31703e-22
0
0
0
0
0
4.5322e-34
-3.35981e-31
2.56009e-28
-5.51649e-27
-3.51066e-26
-7.27312e-26
2.07696e-25
2.5831e-25
3.02442e-25
3.37474e-25
-8.85205e-26
9.41694e-26
3.38406e-25
5.68932e-25
1.27886e-25
8.2084e-24
-1.27545e-23
7.02924e-23
1.92647e-23
-1.71785e-22
5.79265e-22
2.15825e-22
3.35129e-22
-4.15635e-22
-2.47709e-22
-1.70581e-21
-2.42833e-21
5.85516e-22
3.0469e-22
-2.30011e-21
-2.23419e-21
1.54709e-21
4.63342e-21
8.29391e-21
1.02353e-20
4.24489e-21
3.54297e-21
9.98034e-22
-2.74014e-21
-3.80282e-21
-5.94847e-21
-6.60567e-21
-5.88838e-21
-3.25152e-21
-3.01702e-21
-1.80863e-21
-6.46849e-22
3.19411e-23
5.60108e-22
6.51773e-22
6.25987e-22
4.26812e-22
3.16797e-22
2.46482e-22
1.42879e-22
8.21587e-23
2.17792e-23
5.94503e-24
-2.5097e-24
-8.72186e-24
-7.81194e-24
-6.21551e-24
-4.11789e-24
-2.49138e-24
-1.63437e-24
-1.04807e-24
-5.74647e-25
-1.74014e-25
-9.33065e-26
2.38666e-27
1.76217e-26
1.35169e-26
1.66555e-26
1.12087e-26
7.74744e-27
4.88759e-27
3.0487e-27
1.80657e-27
1.06355e-27
6.64305e-28
2.8435e-28
1.64466e-28
7.87283e-29
2.58768e-29
1.61088e-29
4.29427e-30
2.61294e-30
6.44854e-31
-1.25739e-30
-6.83139e-31
5.02143e-29
7.33512e-19
0
1.45947e-28
0
0
0
0
0
0
0
0
0
0
0
0
0
0
0
0
0
0
0
0
0
0
0
0
0
0
0
0
0
0
0
0
0
0
0
0
0
0
0
0
0
0
0
0
0
0
0
0
0
0
0
0
0
0
0
0
0
0
0
0
0
0
0
0
0
0
0
0
0
0
0
0
0
0
0
0
0
0
0
0
-5.12676e-118
-4.23095e-118
-8.68684e-116
-1.03398e-115
-1.15684e-114
1.50729e-114
-1.57282e-112
-1.80875e-112
1.49317e-110
1.87258e-110
9.44418e-111
1.19716e-110
6.26374e-111
5.71618e-111
6.08174e-111
1.70095e-111
1.09748e-108
1.01709e-108
2.07777e-108
-4.0051e-109
1.89841e-106
1.92929e-106
2.86841e-106
2.88118e-106
1.96442e-106
1.79591e-106
4.43051e-106
2.51158e-106
8.37031e-106
8.41155e-106
5.89467e-106
7.10474e-106
6.52092e-106
6.23041e-106
5.52503e-106
1.18372e-106
4.41823e-105
6.4402e-105
1.61718e-102
1.99799e-102
5.85269e-102
-2.19597e-101
8.38977e-102
-1.0197e-101
6.92771e-99
8.55685e-100
1.08071e-96
1.3407e-96
2.84242e-95
-1.26198e-94
7.87571e-95
-8.19903e-95
7.45044e-93
7.89777e-93
7.37498e-93
7.08765e-93
5.96636e-93
4.11318e-93
1.69021e-91
1.64074e-91
2.19992e-91
2.18326e-91
3.04712e-91
-3.40715e-91
9.42545e-91
5.82765e-91
1.42288e-89
-2.89334e-90
1.91182e-87
1.42568e-87
2.04855e-87
-1.63308e-87
1.25884e-86
8.82005e-88
1.32958e-86
-1.49128e-86
3.22402e-86
-7.79436e-86
9.89911e-86
1.01576e-84
-4.65527e-83
-3.42816e-83
8.40726e-84
-1.48009e-82
5.08845e-82
-6.51902e-82
1.33392e-81
-9.65366e-82
1.92625e-81
-3.26475e-81
7.21034e-81
-1.22848e-80
1.41402e-80
-2.42323e-81
1.32092e-80
-4.98295e-81
5.804e-80
1.69912e-80
5.80609e-80
2.5022e-80
4.13644e-80
2.25387e-80
5.08807e-80
-7.9902e-80
1.67971e-79
-1.25887e-80
3.69363e-79
-8.81184e-81
7.49333e-79
3.25711e-79
2.08511e-78
5.54163e-80
1.59705e-78
7.54393e-81
1.35425e-78
1.47002e-81
3.62081e-78
1.90373e-78
3.07535e-78
8.28322e-79
3.02222e-78
-1.0897e-78
2.3776e-77
-3.8781e-78
4.00536e-77
-1.92782e-78
5.18522e-77
-4.98903e-77
5.13089e-77
-4.45462e-77
7.08918e-77
-6.71985e-78
1.64056e-76
-2.5815e-76
8.88165e-76
3.85156e-76
6.90483e-76
3.81423e-77
5.57433e-76
-2.644e-77
4.72199e-76
-5.1735e-77
1.41237e-75
7.14284e-76
1.2198e-75
5.33279e-76
9.44476e-76
3.62446e-76
1.62401e-75
5.30345e-76
2.04226e-75
1.00116e-75
1.62536e-75
3.1406e-76
2.26135e-75
-7.32212e-76
3.31974e-75
1.2995e-75
3.27608e-75
-5.44319e-76
6.77203e-75
5.35308e-75
4.68665e-75
2.93431e-75
3.24852e-75
1.95236e-75
2.27717e-75
1.16313e-75
1.96242e-75
1.13474e-75
2.20596e-75
1.45619e-75
1.652e-75
7.52165e-76
2.58809e-75
5.35908e-76
2.85964e-75
5.65035e-76
2.30615e-75
2.35224e-76
2.31193e-75
-7.04305e-76
2.57616e-75
1.09457e-76
2.54555e-75
-8.29771e-76
2.5169e-75
2.54227e-76
2.02226e-75
-1.63901e-76
1.64877e-75
-3.47956e-76
1.4718e-75
-4.72575e-76
1.22716e-75
-4.49818e-76
1.09914e-75
-5.30625e-76
1.50244e-75
-1.4505e-77
1.32018e-75
-4.77145e-76
1.30872e-75
-1.81688e-76
1.1128e-75
-2.22172e-76
1.36071e-75
-3.8448e-77
1.12689e-75
-9.71234e-78
9.07286e-76
1.05471e-76
8.96367e-76
1.16266e-77
7.62007e-76
-3.26805e-77
7.5049e-76
-3.17096e-76
7.24413e-76
1.89924e-78
6.6184e-76
1.87926e-76
5.06979e-76
1.46243e-76
4.39644e-76
1.77568e-76
3.40906e-76
8.79485e-77
3.23365e-76
1.2746e-76
2.38738e-76
6.38997e-77
2.36047e-76
2.14738e-77
1.86241e-76
-6.77403e-78
1.48855e-76
5.08072e-78
6.64434e-77
-5.51871e-77
9.84428e-78
-9.76254e-77
1.83738e-77
-5.43753e-77
-4.67197e-77
-8.09253e-78
-1.22548e-76
-1.29131e-76
-1.33118e-76
-7.48385e-77
-9.40237e-77
-6.20884e-77
-1.29487e-76
-9.05128e-77
-9.03886e-77
-6.41357e-77
-6.22039e-77
-4.60989e-77
-8.14324e-77
-6.93859e-77
-1.24872e-76
-1.30949e-76
-8.3939e-77
-8.55535e-77
-1.55865e-76
-1.37618e-76
-1.4535e-76
-1.41997e-76
-9.41533e-77
-9.50667e-77
-6.88431e-77
-5.87445e-77
-5.77722e-77
-5.82398e-77
-3.71044e-77
-3.58116e-77
-3.83001e-77
-3.38773e-77
-3.12449e-77
-2.92869e-77
-2.00669e-77
-1.9704e-77
-1.38553e-77
-1.43367e-77
-9.50533e-78
-9.72939e-78
-6.27506e-78
-6.5991e-78
2.08644e-77
9.51546e-78
-9.46466e-75
6.37931e-75
3.59923e-71
-7.21855e-72
-3.12614e-68
-1.09617e-68
-2.28952e-66
-2.09476e-66
-1.87932e-66
5.23367e-67
-1.98402e-66
4.72176e-67
-2.43914e-65
-5.5999e-66
1.84322e-63
-2.27275e-64
-2.8581e-61
-1.4782e-62
-8.00136e-59
-1.00834e-58
-7.6228e-57
-6.82159e-57
-6.19312e-57
2.64053e-56
-7.53128e-56
-2.02977e-55
1.29724e-56
-1.23218e-19
1.91669e-07
2.34912e-08
9.4708e-08
-2.00695e-20
-4.92026e-20
-2.07802e-23
-7.00323e-24
-2.66249e-23
-3.1384e-19
-2.40163e-19
-4.28423e-19
3.99144e-22
-6.75567e-22
7.53427e-17
9.24805e-16
5.24542e-15
1.57878e-14
3.0863e-14
4.39849e-14
5.14866e-14
5.52502e-14
5.62344e-14
5.77866e-14
5.95304e-14
5.96132e-14
5.4735e-14
4.37377e-14
3.04593e-14
1.87277e-14
9.9056e-15
4.64087e-15
1.88781e-15
6.83506e-16
2.24355e-16
6.15924e-17
1.29226e-17
1.90913e-18
1.47095e-19
1.24079e-21
-6.09064e-22
-1.16991e-23
1.64317e-24
-1.38522e-26
-1.94636e-27
8.36785e-29
-1.76247e-30
3.03953e-32
-6.03786e-34
1.9667e-35
-4.77332e-37
4.64456e-39
1.08357e-40
-2.39192e-42
-2.07824e-44
-2.86382e-47
-6.61333e-51
1.17713e-52
2.49355e-52
-3.56182e-55
3.31304e-07
1.68397e-07
-0.000172284
9.95736e-08
5.38041e-07
5.94532e-07
2.43218e-07
4.18774e-07
2.14866e-07
3.45996e-07
5.36394e-08
3.83065e-07
2.88218e-07
3.79064e-07
2.74485e-08
7.89788e-07
-2.74158e-07
7.87345e-07
-1.09864e-06
1.01248e-06
-2.31326e-06
3.35349e-07
-1.59349e-06
4.79971e-07
3.1785e-07
2.29414e-06
3.92589e-06
6.00732e-06
5.92525e-06
1.17461e-05
1.3507e-06
1.76408e-05
-1.44726e-05
1.6616e-05
-3.79411e-05
7.63516e-07
-7.94639e-05
-3.73041e-05
-0.000280746
-0.000548702
-0.000332475
-0.00071857
-0.000176882
-0.000334018
-0.000433105
-0.000462188
-0.000612721
-0.000746508
-0.000306052
-0.000647425
-9.25044e-05
-0.000314544
-0.000233836
-0.000284906
-0.000284638
-0.000418316
-0.000281258
-0.000430904
-0.000324786
-0.000461211
-0.000290212
-0.00046618
-0.000207233
-0.000399108
-0.000204043
-0.000345499
-0.000369222
-0.00045195
-0.000386601
-0.000525167
-0.000324646
-0.000541936
-0.000272552
-0.000343012
-0.00049544
0
-1.02149e-07
3.20551e-07
5.65519e-08
-8.88056e-07
1.44429e-07
7.0978e-06
2.35056e-06
-5.28062e-05
-0.000216234
-1.5564e-08
6.55725e-08
-1.57373e-07
7.45865e-08
1.96899e-08
6.31366e-08
7.35721e-08
7.3461e-08
6.89773e-08
5.96793e-08
9.02604e-08
2.40651e-07
-6.70147e-08
6.6263e-08
0
0
0
-8.87999e-07
-5.99661e-07
-5.86141e-08
-9.20623e-05
-0.000525476
-0.000144552
-1.08199e-07
-1.73221e-07
-0.000123069
-9.62484e-05
-9.46657e-08
1.64998e-08
1.33689e-28
0
0
-1.71465e-26
7.61963e-22
0
-1.32641e-26
0
0
0
0
1.04889e-39
-4.34979e-32
-1.72031e-29
-2.66271e-27
-8.94166e-27
-3.71376e-27
-8.79771e-26
2.1899e-25
1.87155e-25
2.78473e-25
2.66926e-25
-2.78311e-25
4.34047e-25
4.76125e-25
-6.54742e-26
1.16266e-26
3.89557e-23
1.56389e-23
1.01464e-22
1.08065e-22
5.33491e-23
1.94304e-22
4.21633e-22
2.18982e-22
1.41196e-21
6.7319e-22
6.278e-22
-4.34496e-22
-2.19258e-21
1.34034e-21
-6.04902e-22
4.47216e-22
8.39279e-22
7.95747e-21
8.22148e-21
5.74729e-21
5.08347e-21
1.46825e-21
-2.91363e-21
-2.98607e-21
-4.30512e-21
-5.47071e-21
-6.03718e-21
-4.57577e-21
-3.34502e-21
-1.94277e-21
-7.67808e-22
-3.48107e-22
4.15231e-22
6.04141e-22
6.22661e-22
5.0463e-22
3.48922e-22
2.70993e-22
1.58272e-22
1.01485e-22
4.26381e-23
1.42402e-23
1.21697e-24
-7.69298e-24
-8.61916e-24
-7.05614e-24
-4.68916e-24
-3.61644e-24
-2.0379e-24
-1.34188e-24
-7.04028e-25
-2.55133e-25
-1.29117e-25
7.95725e-28
2.21534e-26
1.57746e-26
1.6946e-26
1.37617e-26
9.80512e-27
6.31236e-27
3.91334e-27
2.29427e-27
1.37529e-27
8.21772e-28
4.281e-28
2.20062e-28
9.90232e-29
3.45475e-29
2.05395e-29
5.28605e-30
3.26197e-30
8.37588e-31
-5.91713e-31
-1.04482e-30
-5.0976e-30
0
0
0
0
-0.000191587
1.22599e-17
2.94863e-16
2.46001e-15
9.60015e-15
2.32837e-14
3.7972e-14
4.82948e-14
5.35755e-14
5.58645e-14
5.68836e-14
5.88074e-14
6.00451e-14
5.81258e-14
4.96988e-14
3.71976e-14
2.42372e-14
1.39291e-14
6.87779e-15
3.03068e-15
1.15506e-15
3.94947e-16
1.2039e-16
2.95512e-17
5.25797e-18
6.13024e-19
2.5304e-20
-1.33317e-21
-1.36192e-22
3.59389e-24
2.78935e-25
-1.32128e-26
1.46801e-28
6.21062e-30
-2.78598e-31
5.38122e-33
-9.57137e-35
8.77171e-37
3.05128e-38
-1.28809e-39
6.32558e-42
3.04523e-43
9.86247e-46
4.96229e-49
0
7.64204e-09
-0.000121713
-0.000307174
-5.25876e-08
0
-1.33579e-07
2.29742e-07
-2.59231e-07
-1.08387e-06
2.93175e-06
8.55155e-06
-1.31099e-05
-0.000116058
-0.000118599
-3.89418e-08
7.63844e-08
1.16018e-07
5.47965e-08
-4.13407e-08
-4.06389e-08
6.94615e-08
6.82471e-08
9.92174e-08
-1.83001e-08
2.36387e-07
-2.20952e-08
-7.69406e-08
0
4.54055e-26
0
-1.3053e-07
7.48357e-08
-1.37771e-07
-3.80765e-08
-3.64855e-08
-1.83336e-05
1.27975e-05
5.17925e-06
-7.72182e-07
-6.39233e-07
-8.47079e-08
-1.22116e-50
-5.46343e-47
-4.57491e-44
-5.55932e-42
1.95526e-40
1.33425e-38
-1.04521e-36
3.83476e-35
-9.11884e-34
4.44971e-32
-3.00144e-30
1.70081e-28
-4.78883e-27
2.39438e-27
3.00831e-24
-3.56546e-23
-1.08691e-21
5.46386e-21
2.95081e-19
3.29563e-18
2.12211e-17
9.39183e-17
3.28075e-16
9.90072e-16
2.69002e-15
6.39167e-15
1.33825e-14
2.44052e-14
3.88864e-14
5.36127e-14
6.50153e-14
6.91764e-14
6.80292e-14
6.58708e-14
6.44714e-14
6.25576e-14
5.77006e-14
4.76469e-14
3.11776e-14
1.40809e-14
8.11012e-29
-1.49835e-30
-1.76863e-30
-1.77155e-30
-1.71226e-30
-3.47494e-30
-3.53393e-30
-9.2282e-30
1.26632e-29
6.05676e-29
7.31524e-29
2.86217e-28
4.01554e-28
6.44052e-28
1.41487e-27
1.94139e-27
5.09981e-27
6.69292e-27
1.01302e-26
1.91919e-26
3.4978e-26
2.67757e-26
-2.25773e-27
6.09295e-26
-3.99299e-26
-2.95409e-25
-3.34103e-25
2.54894e-25
2.63277e-25
5.44248e-25
8.13092e-25
2.15032e-24
7.22066e-24
9.29012e-24
9.24258e-24
-8.96782e-24
-5.08404e-23
-3.11877e-23
-1.34481e-22
-2.29455e-22
-2.78147e-22
-2.09117e-22
-4.86506e-22
-9.0551e-23
2.13742e-22
1.03356e-21
2.15779e-21
2.71392e-21
5.86041e-21
8.5986e-21
7.12722e-21
5.72509e-21
3.23658e-21
2.25105e-21
-3.7646e-21
-7.94596e-21
-5.97393e-21
-9.7559e-21
-8.5238e-21
-1.01124e-20
-2.5128e-21
1.99108e-26
4.63217e-28
3.49441e-21
-3.2653e-22
2.88985e-21
1.01257e-21
2.67427e-21
2.19519e-21
-4.75538e-21
-3.31845e-21
-3.38008e-21
-7.02285e-22
-4.1617e-21
2.57024e-22
-3.36122e-23
-1.03507e-22
-3.45257e-23
-1.03845e-24
3.29475e-25
-1.32088e-24
-1.17905e-24
8.26179e-25
-8.19063e-25
-1.31601e-24
-9.74511e-26
-2.53173e-25
1.05375e-25
4.93202e-08
-7.62691e-08
4.47861e-08
-1.14759e-08
-5.10032e-08
-4.48699e-08
-4.15425e-08
-0.000227864
-5.27083e-05
6.11458e-06
1.02141e-05
1.69168e-06
-2.56057e-07
9.92552e-08
9.49015e-49
2.02282e-45
6.6712e-43
2.03391e-41
-2.8569e-39
4.31953e-38
3.3446e-36
-2.5772e-34
1.32527e-32
-7.01317e-31
1.82943e-29
9.10596e-29
-2.39779e-26
6.62896e-25
4.43436e-24
-2.84775e-22
-1.77767e-21
5.59725e-20
1.11116e-18
8.84639e-18
4.6326e-17
1.82587e-16
5.81543e-16
1.65136e-15
4.21261e-15
9.41216e-15
1.85306e-14
3.12339e-14
4.64729e-14
5.99244e-14
6.77311e-14
6.88791e-14
6.68179e-14
6.50261e-14
6.38521e-14
6.05902e-14
5.34298e-14
3.97213e-14
2.21117e-14
0
2.55791e-18
-8.53754e-31
-7.20256e-31
-1.43551e-30
-2.28388e-30
-2.44743e-30
-8.07605e-30
-5.33608e-30
-1.47379e-29
1.34206e-29
6.21778e-29
1.68124e-28
3.00033e-28
4.35747e-28
1.0169e-27
1.6514e-27
2.2384e-27
6.69129e-27
8.67665e-27
5.16853e-27
2.20624e-26
4.8155e-26
7.15002e-26
9.14579e-27
1.04606e-26
-2.75715e-26
-2.42162e-25
1.32832e-25
-1.42061e-25
8.27899e-25
7.38053e-25
1.65992e-24
5.20162e-24
7.98176e-24
8.60693e-24
3.07387e-23
-1.79704e-23
-7.84346e-23
-5.19787e-23
-1.50521e-22
-1.38003e-22
-2.65074e-22
-4.0087e-22
-1.04252e-23
-3.86948e-22
7.17151e-23
1.42737e-21
2.36305e-21
1.52627e-22
4.7382e-21
7.74439e-21
6.32836e-21
2.27894e-21
-1.7173e-21
-2.66576e-21
-2.7247e-21
-1.91357e-21
-1.0304e-20
-1.3672e-20
-1.61769e-20
-9.5627e-21
-5.11671e-21
2.55966e-21
-2.79693e-21
-2.81929e-21
2.00019e-22
5.10551e-21
2.85166e-21
1.23351e-21
-2.57957e-22
-9.47101e-22
-1.83292e-21
1.92468e-22
-1.8822e-21
-9.71832e-23
8.77018e-23
2.32203e-24
-5.05394e-25
-7.8642e-25
-1.34325e-24
-7.63314e-25
6.93934e-31
1.82869e-24
-4.51288e-25
2.33393e-25
-5.44441e-26
3.57414e-26
4.01316e-26
-5.16761e-27
-5.29091e-27
1.08887e-29
-5.86203e-32
4.68503e-47
-1.58053e-36
0
0
0
4.04617e-15
5.39513e-16
2.7536e-17
1.49467e-16
1.64102e-15
8.04826e-15
-3.64479e-08
2.17492e-07
4.33013e-07
-6.23957e-08
-5.53175e-08
-4.16897e-08
-4.24143e-08
0
0
0
0
0
0
0
0
0
0
0
0
0
0
0
0
0
0
0
0
0
0
0
0
0
0
0
0
0
0
0
0
0
0
0
0
0
0
0
0
0
0
0
0
0
0
0
0
0
0
0
0
0
0
0
0
0
0
0
0
0
0
0
0
0
0
0
0
0
0
0
0
0
0
0
0
0
0
0
0
0
0
0
0
0
0
0
0
0
0
0
0
0
0
0
0
0
0
0
0
0
0
0
0
0
0
0
0
0
0
0
0
0
0
0
0
0
0
0
0
0
0
0
0
0
0
0
0
0
0
0
0
0
0
0
0
0
0
0
0
0
0
0
0
0
0
0
0
0
0
0
0
0
0
0
0
0
0
0
0
0
0
0
0
0
0
0
0
0
0
0
0
0
0
0
0
0
0
0
0
0
0
0
0
0
0
0
0
0
0
8.02613e-25
8.74651e-22
4.77755e-15
-4.24949e-07
0
0
0
0
0
0
4.07873e-35
1.12008e-45
2.41681e-34
2.2303e-24
1.76717e-19
8.48918e-28
-1.96332e-25
0
0
-3.38217e-26
1.39224e-08
-1.85916e-24
1.89992e-24
-1.24281e-23
4.22859e-24
-2.21954e-24
-2.27876e-23
9.74714e-24
4.94695e-23
6.79828e-29
1.73758e-27
-3.3428e-24
-2.47405e-23
-3.67513e-23
-3.62791e-23
5.29721e-23
1.67109e-21
-5.44121e-21
-3.30569e-20
-2.39627e-21
-2.17776e-20
-1.39658e-20
-1.18396e-20
1.64329e-20
1.42312e-21
1.81337e-20
6.87743e-21
1.39966e-20
1.21123e-19
7.60366e-20
-2.15486e-19
7.5713e-25
5.06745e-24
1.66196e-19
6.60144e-20
-4.9464e-20
-5.19221e-20
-1.86967e-19
-2.29943e-19
-1.97708e-19
-2.46601e-19
-1.77794e-19
-1.77972e-19
-4.73439e-20
-1.3238e-20
7.83665e-20
8.73462e-20
8.72485e-20
8.01876e-20
5.47716e-20
4.24842e-20
1.32835e-20
9.01877e-21
2.26747e-21
-3.19187e-21
-4.03241e-21
-3.65183e-21
-3.19289e-21
-2.44705e-21
-1.22226e-21
-7.27647e-22
-4.41238e-22
-1.39338e-22
-7.86127e-23
3.48201e-24
2.22542e-23
2.40297e-23
2.4099e-23
1.68642e-23
1.29658e-23
8.14921e-24
4.74123e-24
2.48614e-24
1.56997e-24
9.43177e-25
3.49661e-25
1.89252e-25
1.20889e-25
1.85039e-26
1.28025e-26
-8.31367e-27
-8.34053e-27
-4.89455e-27
-3.76965e-27
-2.40227e-27
-1.47965e-27
-9.10753e-28
-5.39357e-28
-2.95745e-28
-1.66614e-28
-9.78864e-29
-4.17652e-29
-3.59074e-29
0
0
0
0
0
0
0
0
0
0
0
0
0
0
0
0
0
0
0
0
0
0
0
0
0
0
0
0
0
0
0
0
0
0
0
0
0
0
0
0
0
0
0
0
0
0
0
0
0
0
0
0
0
0
0
0
0
0
0
0
0
0
0
0
0
0
0
0
0
0
0
0
0
0
0
0
0
0
0
0
-8.60227e-116
-9.31034e-116
-6.40524e-114
2.47528e-115
-1.71242e-112
1.34483e-112
-1.16089e-110
5.00145e-110
1.01501e-108
1.30233e-108
6.31156e-109
8.55451e-109
3.19712e-108
3.41515e-108
5.68269e-109
-1.87577e-108
9.1236e-107
-3.94956e-106
4.64907e-106
-1.49462e-105
1.50687e-104
1.65291e-104
1.94449e-104
-2.2662e-104