/*--------------------------------*- C++ -*----------------------------------*\
  =========                 |
  \\      /  F ield         | OpenFOAM: The Open Source CFD Toolbox
   \\    /   O peration     | Website:  https://openfoam.org
    \\  /    A nd           | Version:  7
     \\/     M anipulation  |
\*---------------------------------------------------------------------------*/
FoamFile
{
    version     2.0;
    format      ascii;
    class       volScalarField;
    location    "0.05";
    object      T;
}
// * * * * * * * * * * * * * * * * * * * * * * * * * * * * * * * * * * * * * //

dimensions      [0 0 0 1 0 0 0];

internalField   nonuniform List<scalar> 
10000
(
0.497917
0.066929
-0.0302995
-0.0256026
-0.0105003
-0.00261891
-0.000236178
0.000165218
0.000142798
7.7375e-05
3.52928e-05
1.45694e-05
5.59175e-06
2.01458e-06
6.80658e-07
2.12979e-07
5.96284e-08
1.34956e-08
1.39774e-09
-9.25595e-10
-9.01223e-10
-5.43442e-10
-2.77878e-10
-1.30185e-10
-5.76667e-11
-2.45396e-11
-1.01243e-11
-4.07277e-12
-1.60341e-12
-6.19274e-13
-2.35005e-13
-8.77009e-14
-3.2195e-14
-1.16228e-14
-4.12261e-15
-1.43429e-15
-4.88067e-16
-1.61711e-16
-5.17836e-17
-1.58208e-17
-4.49806e-18
-1.12341e-18
-2.02975e-19
7.50533e-21
3.45154e-20
2.48484e-20
1.37504e-20
6.79302e-21
3.14704e-21
1.39821e-21
6.03046e-22
2.54351e-22
1.05416e-22
4.30739e-23
1.73937e-23
6.95375e-24
2.7561e-24
1.08415e-24
4.23625e-25
1.64543e-25
6.35685e-26
2.4439e-26
9.35377e-27
3.56542e-27
1.35391e-27
5.12325e-28
1.93233e-28
7.2659e-29
2.72429e-29
1.01871e-29
3.79962e-30
1.4138e-30
5.24868e-31
1.94435e-31
7.18795e-32
2.65208e-32
9.7669e-33
3.59047e-33
1.31766e-33
4.82775e-34
1.76605e-34
6.45068e-35
2.35275e-35
8.56919e-36
3.11686e-36
1.13222e-36
4.10769e-37
1.48846e-37
5.38726e-38
1.94762e-38
7.03337e-39
2.53722e-39
9.14335e-40
3.29166e-40
1.18387e-40
4.25381e-41
1.52705e-41
5.47697e-42
1.9627e-42
7.1066e-43
0.93151
0.510766
0.162864
0.00756758
-0.0217312
-0.0141246
-0.00615722
-0.00226607
-0.000719999
-0.000188448
-3.15059e-05
4.72479e-06
8.19597e-06
5.40833e-06
2.82571e-06
1.31429e-06
5.67359e-07
2.31703e-07
9.03763e-08
3.38125e-08
1.21389e-08
4.16714e-09
1.35566e-09
4.09932e-10
1.10184e-10
2.29896e-11
1.18709e-12
-2.48045e-12
-2.0522e-12
-1.19001e-12
-6.00385e-13
-2.8044e-13
-1.24565e-13
-5.33549e-14
-2.22206e-14
-9.04502e-15
-3.6112e-15
-1.41748e-15
-5.47925e-16
-2.08805e-16
-7.84994e-17
-2.91227e-17
-1.06614e-17
-3.84975e-18
-1.36999e-18
-4.79798e-19
-1.65012e-19
-5.55465e-20
-1.82075e-20
-5.76339e-21
-1.73624e-21
-4.83691e-22
-1.16235e-22
-1.84975e-23
2.63622e-24
4.60972e-24
3.08764e-24
1.66413e-24
8.11325e-25
3.7306e-25
1.65017e-25
7.09928e-26
2.99061e-26
1.23907e-26
5.06485e-27
2.04715e-27
8.19549e-28
3.25394e-28
1.28262e-28
5.02346e-29
1.9562e-29
7.57838e-30
2.9221e-30
1.12188e-30
4.29021e-31
1.63464e-31
6.20711e-32
2.34954e-32
8.86723e-33
3.33723e-33
1.2527e-33
4.69068e-34
1.7523e-34
6.53155e-35
2.42946e-35
9.01842e-36
3.34133e-36
1.2357e-36
4.56193e-37
1.68133e-37
6.1867e-38
2.27297e-38
8.33836e-39
3.05454e-39
1.1174e-39
4.08222e-40
1.48944e-40
5.42762e-41
1.97552e-41
7.29386e-42
1.04338
0.86128
0.475338
0.168791
0.033667
-0.00249019
-0.00677654
-0.00457326
-0.00232462
-0.00101945
-0.00040229
-0.00014446
-4.67325e-05
-1.30311e-05
-2.66716e-06
-1.55958e-08
4.00465e-07
3.08672e-07
1.74614e-07
8.63239e-08
3.9383e-08
1.69849e-08
7.01141e-09
2.78938e-09
1.0733e-09
3.99928e-10
1.44177e-10
5.01188e-11
1.66814e-11
5.24385e-12
1.51348e-12
3.73885e-13
6.02312e-14
-9.52764e-15
-1.61661e-14
-1.0898e-14
-5.90803e-15
-2.88893e-15
-1.32783e-15
-5.85036e-16
-2.49801e-16
-1.04058e-16
-4.24733e-17
-1.70378e-17
-6.7309e-18
-2.62263e-18
-1.00891e-18
-3.83455e-19
-1.44044e-19
-5.34875e-20
-1.96301e-20
-7.11748e-21
-2.54761e-21
-8.99137e-22
-3.12346e-22
-1.06518e-22
-3.55201e-23
-1.15112e-23
-3.58886e-24
-1.05686e-24
-2.82915e-25
-6.2035e-26
-6.30121e-27
4.11376e-27
3.99711e-27
2.42255e-27
1.25374e-27
5.9842e-28
2.7177e-28
1.193e-28
5.10828e-29
2.14588e-29
8.87794e-30
3.6273e-30
1.46654e-30
5.87628e-31
2.33629e-31
9.22513e-32
3.62053e-32
1.41318e-32
5.48876e-33
2.12224e-33
8.17186e-34
3.13469e-34
1.19822e-34
4.56514e-35
1.73397e-35
6.56725e-36
2.48058e-36
9.34582e-37
3.51267e-37
1.31725e-37
4.92898e-38
1.84057e-38
6.85953e-39
2.55165e-39
9.47478e-40
3.51212e-40
1.29977e-40
4.90215e-41
1.04539
1.01655
0.717884
0.366266
0.145218
0.046879
0.0110418
0.000429996
-0.00155868
-0.00128692
-0.000741547
-0.000364184
-0.000161652
-6.63937e-05
-2.54528e-05
-9.09614e-06
-2.99155e-06
-8.7373e-07
-2.03615e-07
-1.99226e-08
1.66063e-08
1.60026e-08
9.80594e-09
5.10204e-09
2.42665e-09
1.08746e-09
4.6621e-10
1.92856e-10
7.73653e-11
3.01816e-11
1.14645e-11
4.23946e-12
1.52367e-12
5.3031e-13
1.77557e-13
5.64987e-14
1.66819e-14
4.32384e-15
8.18503e-16
-1.84288e-17
-1.35949e-16
-1.01192e-16
-5.71494e-17
-2.86551e-17
-1.34205e-17
-6.00742e-18
-2.60214e-18
-1.09881e-18
-4.5452e-19
-1.84772e-19
-7.39898e-20
-2.9233e-20
-1.14093e-20
-4.40251e-21
-1.68052e-21
-6.34805e-22
-2.3733e-22
-8.78116e-23
-3.21453e-23
-1.16364e-23
-4.16192e-24
-1.46897e-24
-5.10743e-25
-1.7448e-25
-5.83425e-26
-1.89832e-26
-5.95306e-27
-1.76882e-27
-4.80897e-28
-1.09231e-28
-1.34769e-29
5.48914e-30
6.07428e-30
3.79752e-30
1.99561e-30
9.62056e-31
4.40229e-31
1.94471e-31
8.3736e-32
3.53568e-32
1.4699e-32
6.03377e-33
2.45061e-33
9.86334e-34
3.9388e-34
1.56211e-34
6.15749e-35
2.41388e-35
9.4162e-36
3.65661e-36
1.41412e-36
5.4481e-37
2.09157e-37
8.00346e-38
3.0532e-38
1.16142e-38
4.40607e-39
1.66729e-39
6.29441e-40
2.43649e-40
1.03069
1.05946
0.847484
0.518753
0.263118
0.117752
0.0468513
0.0161828
0.00452607
0.000733275
-0.000216018
-0.00030289
-0.000205408
-0.000112246
-5.46092e-05
-2.45467e-05
-1.03679e-05
-4.14641e-06
-1.57278e-06
-5.63623e-07
-1.88582e-07
-5.7301e-08
-1.47039e-08
-2.36988e-09
4.84337e-10
7.54592e-10
5.13197e-10
2.81891e-10
1.39364e-10
6.45226e-11
2.85103e-11
1.21494e-11
5.02424e-12
2.02396e-12
7.96022e-13
3.05997e-13
1.1498e-13
4.21938e-14
1.50891e-14
5.23816e-15
1.75343e-15
5.59298e-16
1.66165e-16
4.3663e-17
8.61072e-18
7.04088e-20
-1.23399e-18
-9.57093e-19
-5.49775e-19
-2.78778e-19
-1.31777e-19
-5.94887e-20
-2.59804e-20
-1.10615e-20
-4.61416e-21
-1.89209e-21
-7.64519e-22
-3.04917e-22
-1.20189e-22
-4.68643e-23
-1.80883e-23
-6.91403e-24
-2.61794e-24
-9.82042e-25
-3.64935e-25
-1.34313e-25
-4.89379e-26
-1.76406e-26
-6.28485e-27
-2.21e-27
-7.65519e-28
-2.6047e-28
-8.66933e-29
-2.80433e-29
-8.72269e-30
-2.55866e-30
-6.79265e-31
-1.45419e-31
-1.22226e-32
1.1679e-32
1.05901e-32
6.32876e-33
3.26309e-33
1.5577e-33
7.08895e-34
3.12197e-34
1.34219e-34
5.66424e-35
2.35524e-35
9.67495e-36
3.93393e-36
1.58567e-36
6.34316e-37
2.52059e-37
9.95693e-38
3.91235e-38
1.52989e-38
5.95629e-39
2.3099e-39
9.26652e-40
1.022
1.06391
0.901318
0.609331
0.354021
0.186347
0.0897919
0.0396358
0.0160141
0.00585085
0.00186402
0.00046138
4.02671e-05
-5.00132e-05
-4.80284e-05
-3.03037e-05
-1.6225e-05
-7.89643e-06
-3.59414e-06
-1.55152e-06
-6.39743e-07
-2.52702e-07
-9.55788e-08
-3.44677e-08
-1.17332e-08
-3.69108e-09
-1.0208e-09
-2.11612e-10
-3.16823e-12
3.1289e-11
2.50994e-11
1.47472e-11
7.60051e-12
3.63202e-12
1.64918e-12
7.20815e-13
3.05573e-13
1.26238e-13
5.09743e-14
2.01554e-14
7.81145e-15
2.96801e-15
1.105e-15
4.02558e-16
1.43143e-16
4.94723e-17
1.65034e-17
5.24941e-18
1.55539e-18
4.0713e-19
7.94096e-20
-7.69413e-23
-1.19822e-20
-9.20467e-21
-5.28227e-21
-2.6826e-21
-1.27155e-21
-5.76079e-22
-2.5265e-22
-1.0808e-22
-4.53203e-23
-1.86899e-23
-7.59826e-24
-3.05043e-24
-1.21088e-24
-4.75714e-25
-1.85097e-25
-7.1364e-26
-2.72732e-26
-1.03336e-26
-3.88202e-27
-1.44583e-27
-5.33744e-28
-1.95226e-28
-7.07093e-29
-2.53388e-29
-8.97334e-30
-3.13525e-30
-1.0783e-30
-3.63833e-31
-1.19837e-31
-3.82271e-32
-1.16511e-32
-3.30608e-33
-8.22295e-34
-1.45654e-34
8.35315e-36
2.73508e-35
1.95155e-35
1.08386e-35
5.39595e-36
2.52457e-36
1.1344e-36
4.95373e-37
2.11736e-37
8.89984e-38
3.69054e-38
1.51331e-38
6.14816e-39
2.62241e-39
1.01854
1.06031
0.919073
0.65428
0.41145
0.239013
0.128997
0.0648214
0.0304744
0.0134314
0.00554033
0.00212264
0.000741186
0.000225029
5.101e-05
1.32679e-06
-8.10705e-06
-6.91791e-06
-4.24615e-06
-2.2619e-06
-1.10696e-06
-5.10207e-07
-2.2431e-07
-9.47232e-08
-3.85577e-08
-1.51457e-08
-5.73427e-09
-2.08431e-09
-7.21408e-10
-2.3394e-10
-6.86489e-11
-1.6605e-11
-2.09028e-12
1.01166e-12
1.13289e-12
7.32102e-13
3.96646e-13
1.96108e-13
9.1483e-14
4.09395e-14
1.77415e-14
7.48847e-15
3.09005e-15
1.24957e-15
4.95955e-16
1.93365e-16
7.40766e-17
2.78754e-17
1.02942e-17
3.72426e-18
1.31623e-18
4.52363e-19
1.50058e-19
4.74247e-20
1.3926e-20
3.58486e-21
6.64562e-22
-2.7825e-23
-1.21543e-22
-8.95056e-23
-5.0705e-23
-2.56209e-23
-1.21244e-23
-5.49433e-24
-2.41317e-24
-1.03475e-24
-4.35212e-25
-1.80131e-25
-7.35354e-26
-2.96587e-26
-1.18331e-26
-4.67466e-27
-1.82983e-27
-7.10085e-28
-2.73283e-28
-1.04334e-28
-3.95185e-29
-1.48507e-29
-5.53629e-30
-2.047e-30
-7.50379e-31
-2.72565e-31
-9.80288e-32
-3.48716e-32
-1.22516e-32
-4.24271e-33
-1.44401e-33
-4.81003e-34
-1.55794e-34
-4.85439e-35
-1.42718e-35
-3.7998e-36
-8.16873e-37
-6.97352e-38
6.53342e-38
5.9672e-38
3.58263e-38
1.85517e-38
8.90094e-39
4.57577e-39
1.0174
1.05699
0.923162
0.673551
0.442879
0.273504
0.158908
0.0868795
0.0448884
0.021994
0.0102429
0.00453751
0.00190938
0.00075974
0.000282975
9.65571e-05
2.86724e-05
6.26341e-06
3.78238e-09
-1.12725e-06
-9.34379e-07
-5.7135e-07
-3.05691e-07
-1.5098e-07
-7.049e-08
-3.14999e-08
-1.35683e-08
-5.65595e-09
-2.28614e-09
-8.96295e-10
-3.40377e-10
-1.24778e-10
-4.38639e-11
-1.46053e-11
-4.49433e-12
-1.20626e-12
-2.31868e-13
1.03324e-14
4.53992e-14
3.42645e-14
1.98346e-14
1.02059e-14
4.90097e-15
2.24574e-15
9.93773e-16
4.27738e-16
1.79892e-16
7.41484e-17
3.00136e-17
1.19461e-17
4.67895e-18
1.8039e-18
6.84451e-19
2.55419e-19
9.36278e-20
3.36445e-20
1.18142e-20
4.03365e-21
1.32818e-21
4.15791e-22
1.20326e-22
3.00882e-23
5.05686e-24
-6.39394e-25
-1.25747e-24
-8.74667e-25
-4.85759e-25
-2.43204e-25
-1.14567e-25
-5.18129e-26
-2.27469e-26
-9.76018e-27
-4.11127e-27
-1.70531e-27
-6.98066e-28
-2.82457e-28
-1.1311e-28
-4.48683e-29
-1.76431e-29
-6.88073e-30
-2.6625e-30
-1.02249e-30
-3.89776e-31
-1.47498e-31
-5.54067e-32
-2.06577e-32
-7.64266e-33
-2.80468e-33
-1.0204e-33
-3.6778e-34
-1.31191e-34
-4.62524e-35
-1.60869e-35
-5.50536e-36
-1.84686e-36
-6.03857e-37
-1.90673e-37
-5.72113e-38
-1.57657e-38
-2.25108e-39
1.0171
1.05511
0.923204
0.680702
0.458219
0.293548
0.178927
0.103593
0.0571245
0.030083
0.0151663
0.00733397
0.00340595
0.00151956
0.000650702
0.00026672
0.000104068
3.82387e-05
1.2949e-05
3.84507e-06
8.55161e-07
1.65303e-08
-1.40417e-07
-1.19643e-07
-7.41698e-08
-4.01576e-08
-2.00802e-08
-9.50366e-09
-4.31248e-09
-1.89014e-09
-8.0372e-10
-3.32401e-10
-1.33865e-10
-5.24927e-11
-2.00167e-11
-7.40083e-12
-2.63911e-12
-8.99126e-13
-2.87536e-13
-8.31343e-14
-1.96182e-14
-2.17655e-15
1.42954e-15
1.48335e-15
9.46508e-16
5.1235e-16
2.54386e-16
1.19554e-16
5.40336e-17
2.36991e-17
1.01444e-17
4.25357e-18
1.75148e-18
7.09441e-19
2.82995e-19
1.11245e-19
4.31072e-20
1.64645e-20
6.19544e-21
2.29468e-21
8.35297e-22
2.98142e-22
1.03975e-22
3.52331e-23
1.1496e-23
3.55401e-24
1.00766e-24
2.41202e-25
3.40017e-26
-1.02124e-26
-1.30465e-26
-8.5473e-27
-4.63848e-27
-2.29561e-27
-1.07453e-27
-4.8424e-28
-2.12221e-28
-9.10121e-29
-3.83519e-29
-1.59255e-29
-6.5301e-30
-2.64807e-30
-1.06323e-30
-4.23056e-31
-1.66931e-31
-6.53537e-32
-2.53963e-32
-9.7985e-33
-3.75423e-33
-1.42856e-33
-5.39881e-34
-2.02625e-34
-7.55112e-35
-2.79345e-35
-1.02545e-35
-3.73338e-36
-1.34708e-36
-4.81247e-37
-1.69914e-37
-5.61884e-38
1.01706
1.05424
0.922522
0.682906
0.464988
0.30413
0.191028
0.114932
0.0663336
0.0367845
0.0196325
0.0101015
0.00501812
0.00240966
0.00111932
0.000503067
0.000218638
9.17397e-05
3.70465e-05
1.43157e-05
5.23918e-06
1.78016e-06
5.37376e-07
1.26561e-07
8.59389e-09
-1.56119e-08
-1.4538e-08
-9.29793e-09
-5.1326e-09
-2.60732e-09
-1.25249e-09
-5.77e-10
-2.56981e-10
-1.11195e-10
-4.68856e-11
-1.9298e-11
-7.75921e-12
-3.04702e-12
-1.16728e-12
-4.3517e-13
-1.57211e-13
-5.46371e-14
-1.80329e-14
-5.51136e-15
-1.47044e-15
-2.79841e-16
1.45536e-17
5.66021e-17
4.26108e-17
2.47389e-17
1.27988e-17
6.19067e-18
2.86169e-18
1.27935e-18
5.57103e-19
2.37386e-19
9.92852e-20
4.08458e-20
1.65531e-20
6.6147e-21
2.60796e-21
1.01479e-21
3.89696e-22
1.47639e-22
5.51439e-23
2.02823e-23
7.33327e-24
2.59956e-24
8.99908e-25
3.02342e-25
9.75737e-26
2.96889e-26
8.18946e-27
1.8389e-27
1.82071e-28
-1.37886e-28
-1.34428e-28
-8.32319e-29
-4.41006e-29
-2.15498e-29
-1.00122e-29
-4.4918e-30
-1.96338e-30
-8.40869e-31
-3.54191e-31
-1.47124e-31
-6.03821e-32
-2.45209e-32
-9.86378e-33
-3.93367e-33
-1.55626e-33
-6.11112e-34
-2.38275e-34
-9.22741e-35
-3.54988e-35
-1.35685e-35
-5.15297e-36
-1.94436e-36
-7.28583e-37
-2.67799e-37
1.01707
1.05388
0.92198
0.683374
0.467691
0.309276
0.197759
0.121974
0.0726358
0.0417961
0.0232607
0.0125334
0.00654573
0.00331712
0.00163267
0.000781108
0.000363428
0.000164471
7.23746e-05
3.09386e-05
1.28243e-05
5.138e-06
1.97897e-06
7.25958e-07
2.49286e-07
7.72659e-08
1.95988e-08
2.45732e-09
-1.46883e-09
-1.66409e-09
-1.12316e-09
-6.37866e-10
-3.30592e-10
-1.61496e-10
-7.55676e-11
-3.41808e-11
-1.50286e-11
-6.44578e-12
-2.70274e-12
-1.1093e-12
-4.45888e-13
-1.7548e-13
-6.75483e-14
-2.53813e-14
-9.27779e-15
-3.28065e-15
-1.11148e-15
-3.54543e-16
-1.02658e-16
-2.44675e-17
-2.91008e-18
1.62804e-18
1.76326e-18
1.14003e-18
6.22793e-19
3.11868e-19
1.47865e-19
6.74629e-20
2.9895e-20
1.29412e-20
5.49342e-21
2.29268e-21
9.42469e-22
3.82095e-22
1.5291e-22
6.0437e-23
2.35988e-23
9.10339e-24
3.46847e-24
1.30455e-24
4.83925e-25
1.76808e-25
6.34982e-26
2.23496e-26
7.67509e-27
2.55354e-27
8.13371e-28
2.42597e-28
6.45106e-29
1.31615e-29
4.04629e-31
-1.68596e-30
-1.36914e-30
-8.05877e-31
-4.1715e-31
-2.01202e-31
-9.27369e-32
-4.13944e-32
-1.80355e-32
-7.70928e-33
-3.24409e-33
-1.34719e-33
-5.53095e-34
-2.24796e-34
-9.05409e-35
-3.61673e-35
-1.43375e-35
-5.64319e-36
-2.20545e-36
-8.64066e-37
1.01709
1.05375
0.921671
0.683352
0.468653
0.311598
0.201246
0.126038
0.0766254
0.045245
0.0259581
0.0144775
0.00785419
0.00414773
0.00213378
0.00107015
0.00052358
0.000250039
0.000116595
5.30959e-05
2.36094e-05
1.0245e-05
4.33387e-06
1.78389e-06
7.12334e-07
2.7461e-07
1.01378e-07
3.53272e-08
1.12911e-08
3.08581e-09
5.50987e-10
-9.28118e-11
-1.75845e-10
-1.29953e-10
-7.68981e-11
-4.08977e-11
-2.03743e-11
-9.69517e-12
-4.45439e-12
-1.98881e-12
-8.66475e-13
-3.69347e-13
-1.54298e-13
-6.32343e-14
-2.5431e-14
-1.00344e-14
-3.88119e-15
-1.46915e-15
-5.42756e-16
-1.94837e-16
-6.74742e-17
-2.22633e-17
-6.8339e-18
-1.8483e-18
-3.69124e-19
4.16392e-21
6.2805e-20
4.93209e-20
2.91436e-20
1.52574e-20
7.45446e-21
3.47914e-21
1.57061e-21
6.90942e-22
2.97622e-22
1.25933e-22
5.24621e-23
2.15514e-23
8.74016e-24
3.50204e-24
1.38707e-24
5.43213e-25
2.10356e-25
8.05333e-26
3.04684e-26
1.13833e-26
4.19528e-27
1.52282e-27
5.43174e-28
1.89749e-28
6.45892e-29
2.12499e-29
6.66336e-30
1.93816e-30
4.9044e-31
8.57782e-32
-8.0403e-33
-1.92963e-32
-1.37598e-32
-7.74874e-33
-3.92389e-33
-1.86846e-33
-8.54223e-34
-3.7925e-34
-1.64649e-34
-7.02156e-35
-2.95057e-35
-1.22446e-35
-5.02499e-36
-2.10634e-36
1.0171
1.05371
0.921521
0.68325
0.468943
0.312571
0.202942
0.128239
0.0789906
0.0474594
0.0278211
0.0159149
0.00888605
0.00484433
0.00257968
0.00134254
0.000683205
0.000340149
0.000165766
7.91048e-05
3.69762e-05
1.69322e-05
7.59541e-06
3.33659e-06
1.43446e-06
6.02883e-07
2.47274e-07
9.87068e-08
3.81861e-08
1.42196e-08
5.03766e-09
1.66099e-09
4.85351e-10
1.08153e-10
3.56943e-12
-1.63061e-11
-1.42242e-11
-8.94918e-12
-4.9258e-12
-2.51299e-12
-1.21862e-12
-5.69189e-13
-2.58066e-13
-1.14133e-13
-4.93957e-14
-2.09643e-14
-8.73716e-15
-3.57848e-15
-1.44073e-15
-5.70079e-16
-2.21536e-16
-8.44356e-17
-3.14935e-17
-1.14558e-17
-4.04164e-18
-1.37047e-18
-4.39458e-19
-1.28943e-19
-3.18231e-20
-4.55433e-21
1.50321e-21
1.93167e-21
1.29658e-21
7.21704e-22
3.66116e-22
1.75467e-22
8.0859e-23
3.61847e-23
1.58215e-23
6.78652e-24
2.86373e-24
1.19112e-24
4.89019e-25
1.98375e-25
7.957e-26
3.15728e-26
1.23963e-26
4.81633e-27
1.85153e-27
7.04027e-28
2.64634e-28
9.82479e-29
3.59811e-29
1.29754e-29
4.59555e-30
1.59246e-30
5.36763e-31
1.74322e-31
5.36374e-32
1.51097e-32
3.56677e-33
4.69061e-34
-1.79026e-34
-2.10622e-34
-1.36426e-34
-7.39491e-35
-3.66963e-35
-1.726e-35
-7.82499e-36
-3.70389e-36
1.0171
1.05369
0.921454
0.683171
0.469003
0.312947
0.203721
0.129368
0.0803154
0.0487992
0.0290299
0.01691
0.00964523
0.00538736
0.00294709
0.00157929
0.000829321
0.000426906
0.000215509
0.000106731
5.18764e-05
2.47537e-05
1.15985e-05
5.33729e-06
2.41209e-06
1.07042e-06
4.66266e-07
1.99228e-07
8.34162e-08
3.41701e-08
1.36618e-08
5.31217e-09
1.99752e-09
7.19674e-10
2.44345e-10
7.55763e-11
1.95104e-11
2.81635e-12
-1.12187e-12
-1.43512e-12
-9.96342e-13
-5.75264e-13
-3.02455e-13
-1.49955e-13
-7.1322e-14
-3.28588e-14
-1.47513e-14
-6.47794e-15
-2.78994e-15
-1.18048e-15
-4.91264e-16
-2.01209e-16
-8.11258e-17
-3.21943e-17
-1.25675e-17
-4.82053e-18
-1.8136e-18
-6.67417e-19
-2.39235e-19
-8.29639e-20
-2.75194e-20
-8.54778e-21
-2.37333e-21
-5.12899e-22
-2.6051e-23
6.19436e-23
5.35792e-23
3.27274e-23
1.74557e-23
8.64297e-24
4.07877e-24
1.85998e-24
8.26259e-25
3.59408e-25
1.53613e-25
6.46673e-26
2.68605e-26
1.1022e-26
4.47224e-27
1.79551e-27
7.13572e-28
2.80791e-28
1.09411e-28
4.22119e-29
1.61209e-29
6.09146e-30
2.27575e-30
8.39763e-31
3.05625e-31
1.09479e-31
3.84865e-32
1.32197e-32
4.4068e-33
1.40964e-33
4.23798e-34
1.14496e-34
2.43827e-35
1.49447e-36
-2.5565e-36
-2.94782e-36
1.0171
1.05369
0.921427
0.683126
0.469
0.313079
0.204058
0.129918
0.0810213
0.0495691
0.029773
0.0175609
0.0101715
0.00578507
0.00323065
0.00177146
0.000953825
0.000504401
0.000262032
0.000133758
6.71128e-05
3.31086e-05
1.60639e-05
7.66734e-06
3.60088e-06
1.66418e-06
7.569e-07
3.38759e-07
1.49165e-07
6.45939e-08
2.74911e-08
1.14883e-08
4.70727e-09
1.88733e-09
7.38211e-10
2.80396e-10
1.02672e-10
3.57959e-11
1.16065e-11
3.31903e-12
7.06331e-13
-1.12494e-16
-1.2527e-13
-1.04304e-13
-6.46773e-14
-3.53975e-14
-1.8034e-14
-8.758e-15
-4.10577e-15
-1.87202e-15
-8.34108e-16
-3.64339e-16
-1.5635e-16
-6.6015e-17
-2.74508e-17
-1.12482e-17
-4.54277e-18
-1.80807e-18
-7.08855e-19
-2.73502e-19
-1.03705e-19
-3.85589e-20
-1.4012e-20
-4.9512e-21
-1.68723e-21
-5.46593e-22
-1.63674e-22
-4.23498e-23
-7.37277e-24
9.50453e-25
1.94707e-24
1.39975e-24
8.02591e-25
4.14573e-25
2.01356e-25
9.38262e-26
4.2412e-26
1.87235e-26
8.10821e-27
3.45472e-27
1.45136e-27
6.02126e-28
2.46967e-28
1.00229e-28
4.02727e-29
1.60275e-29
6.31922e-30
2.46857e-30
9.55407e-31
3.6627e-31
1.39033e-31
5.22261e-32
1.93973e-32
7.11488e-33
2.57306e-33
9.1533e-34
3.19218e-34
1.08589e-34
3.57344e-35
9.49072e-36
1.0171
1.05369
0.921417
0.683103
0.468987
0.313119
0.204196
0.130174
0.0813808
0.0499916
0.0302087
0.0179661
0.0105179
0.00606099
0.00343746
0.00191848
0.00105357
0.000569319
0.000302728
0.00015842
8.16017e-05
4.13823e-05
2.06659e-05
1.01654e-05
4.92628e-06
2.35251e-06
1.10722e-06
5.13666e-07
2.34909e-07
1.05897e-07
4.70527e-08
2.06016e-08
8.88516e-09
3.77243e-09
1.57543e-09
6.46353e-10
2.60061e-10
1.02359e-10
3.92657e-11
1.45966e-11
5.20969e-12
1.75605e-12
5.40673e-13
1.39593e-13
2.06173e-14
-7.51144e-15
-9.89573e-15
-6.91006e-15
-4.00417e-15
-2.11307e-15
-1.05226e-15
-5.03145e-16
-2.33284e-16
-1.05516e-16
-4.67424e-17
-2.03341e-17
-8.70299e-18
-3.6694e-18
-1.52538e-18
-6.25509e-19
-2.53079e-19
-1.0102e-19
-3.97676e-20
-1.54277e-20
-5.89136e-21
-2.21062e-21
-8.12953e-22
-2.91856e-22
-1.01666e-22
-3.40191e-23
-1.07384e-23
-3.07926e-24
-7.24547e-25
-8.1413e-26
5.19007e-26
5.45445e-26
3.51568e-26
1.92616e-26
9.70411e-27
4.64e-27
2.13933e-27
9.59845e-28
4.2147e-28
1.81815e-28
7.7257e-29
3.2398e-29
1.34269e-29
5.50498e-30
2.23456e-30
8.98511e-31
3.58027e-31
1.41407e-31
5.5365e-32
2.14878e-32
8.26553e-33
3.15019e-33
1.18898e-33
4.44107e-34
1.63951e-34
5.64542e-35
1.0171
1.05369
0.921413
0.683092
0.468976
0.313128
0.204249
0.130287
0.0815564
0.0502142
0.0304535
0.0182075
0.0107358
0.00624351
0.00358099
0.0020253
0.00112931
0.000620744
0.00033632
0.000179607
9.45444e-05
4.90604e-05
2.50996e-05
1.26623e-05
6.30008e-06
3.09208e-06
1.4973e-06
7.15468e-07
3.37414e-07
1.57064e-07
7.2171e-08
3.27363e-08
1.46574e-08
6.47719e-09
2.82435e-09
1.21477e-09
5.15089e-10
2.15157e-10
8.84424e-11
3.57237e-11
1.41495e-11
5.47923e-12
2.06514e-12
7.52322e-13
2.61822e-13
8.51783e-14
2.46998e-14
5.53089e-15
2.46934e-16
-7.69481e-16
-6.83673e-16
-4.33193e-16
-2.39963e-16
-1.23353e-16
-6.03824e-17
-2.85292e-17
-1.31142e-17
-5.89458e-18
-2.59949e-18
-1.12734e-18
-4.8157e-19
-2.02861e-19
-8.43348e-20
-3.46167e-20
-1.40322e-20
-5.61711e-21
-2.2198e-21
-8.65521e-22
-3.32652e-22
-1.25847e-22
-4.6766e-23
-1.70191e-23
-6.03758e-24
-2.07281e-24
-6.80291e-25
-2.08571e-25
-5.67301e-26
-1.16371e-26
-1.38468e-28
1.76636e-27
1.43239e-27
8.58655e-28
4.54546e-28
2.24466e-28
1.05943e-28
4.84103e-29
2.1581e-29
9.43221e-30
4.05517e-30
1.71902e-30
7.19729e-31
2.98005e-31
1.22139e-31
4.95868e-32
1.99518e-32
7.95897e-33
3.14841e-33
1.23519e-33
4.80422e-34
1.80756e-34
1.01711
1.05369
0.921412
0.683088
0.46897
0.313128
0.204267
0.130335
0.0816389
0.0503271
0.0305859
0.0183458
0.0108673
0.00635923
0.0036763
0.00209943
0.00118414
0.000659522
0.000362667
0.000196871
0.00010549
5.57934e-05
2.91278e-05
1.50112e-05
7.63739e-06
3.83668e-06
1.90331e-06
9.32555e-07
4.51351e-07
2.15821e-07
1.01969e-07
4.76089e-08
2.19676e-08
1.00177e-08
4.51488e-09
2.01087e-09
8.84961e-10
3.84741e-10
1.65186e-10
7.00055e-11
2.92658e-11
1.20578e-11
4.89008e-12
1.94879e-12
7.61322e-13
2.90541e-13
1.07744e-13
3.8501e-14
1.30655e-14
4.09259e-15
1.10508e-15
1.99119e-16
-2.87577e-17
-5.89184e-17
-4.39323e-17
-2.61726e-17
-1.40421e-17
-7.07795e-18
-3.41917e-18
-1.60041e-18
-7.30682e-19
-3.26808e-19
-1.43615e-19
-6.21357e-20
-2.65065e-20
-1.11604e-20
-4.64123e-21
-1.90722e-21
-7.74599e-22
-3.10928e-22
-1.23325e-22
-4.83109e-23
-1.86772e-23
-7.1179e-24
-2.66962e-24
-9.83022e-25
-3.5413e-25
-1.24142e-25
-4.19837e-26
-1.34935e-26
-4.00097e-27
-1.01797e-27
-1.67467e-28
3.04651e-29
5.13357e-29
3.60813e-29
2.0536e-29
1.05827e-29
5.14097e-30
2.40002e-30
1.08827e-30
4.82448e-31
2.09999e-31
9.00159e-32
3.80778e-32
1.59202e-32
6.58637e-33
2.69864e-33
1.09533e-33
4.39134e-34
1.01711
1.05369
0.921412
0.683086
0.468967
0.313126
0.204273
0.130355
0.0816762
0.0503823
0.0306551
0.0184222
0.0109438
0.00642986
0.00373715
0.00214881
0.00122218
0.000687504
0.000382413
0.000210292
0.000114307
6.14089e-05
3.26032e-05
1.71059e-05
8.86942e-06
4.54493e-06
2.30184e-06
1.15235e-06
5.70305e-07
2.79059e-07
1.35023e-07
6.46093e-08
3.0578e-08
1.43151e-08
6.62948e-09
3.03732e-09
1.37668e-09
6.17305e-10
2.73814e-10
1.20128e-10
5.21162e-11
2.23518e-11
9.47286e-12
3.96491e-12
1.6377e-12
6.66863e-13
2.67318e-13
1.05285e-13
4.06309e-14
1.53023e-14
5.58978e-15
1.96075e-15
6.48707e-16
1.95064e-16
4.82836e-17
5.90203e-18
-3.56517e-18
-3.99761e-18
-2.6966e-18
-1.53983e-18
-8.06831e-19
-4.00585e-19
-1.91511e-19
-8.89755e-20
-4.04033e-20
-1.80003e-20
-7.88851e-21
-3.40696e-21
-1.45203e-21
-6.11262e-22
-2.5434e-22
-1.04645e-22
-4.25825e-23
-1.71384e-23
-6.82121e-24
-2.68376e-24
-1.04315e-24
-4.00191e-25
-1.51331e-25
-5.62994e-26
-2.05496e-26
-7.32935e-27
-2.53849e-27
-8.45038e-28
-2.65418e-28
-7.56763e-29
-1.76317e-29
-1.87714e-30
1.34423e-30
1.37643e-30
8.82706e-31
4.83177e-31
2.43664e-31
1.1676e-31
5.40015e-32
2.43237e-32
1.07305e-32
4.65396e-33
1.98858e-33
8.54821e-34
1.01711
1.05369
0.921411
0.683085
0.468965
0.313125
0.204274
0.130362
0.0816924
0.0504085
0.0306901
0.0184631
0.0109869
0.00647151
0.00377463
0.00218052
0.00124759
0.000706914
0.000396619
0.000220295
0.000121108
6.5887e-05
3.54663e-05
1.88873e-05
9.95025e-06
5.18549e-06
2.67325e-06
1.36333e-06
6.87853e-07
3.4337e-07
1.69607e-07
8.29051e-08
4.01076e-08
1.92054e-08
9.10367e-09
4.27214e-09
1.98492e-09
9.13135e-10
4.15943e-10
1.87603e-10
8.37802e-11
3.70428e-11
1.62134e-11
7.0237e-12
3.01069e-12
1.27648e-12
5.35054e-13
2.21582e-13
9.05834e-14
3.6512e-14
1.44882e-14
5.64733e-15
2.15566e-15
8.02133e-16
2.88917e-16
9.95482e-17
3.21018e-17
9.2347e-18
2.05012e-18
8.62238e-20
-2.87182e-19
-2.53575e-19
-1.60331e-19
-8.87865e-20
-4.56898e-20
-2.24174e-20
-1.06289e-20
-4.90884e-21
-2.21944e-21
-9.85729e-22
-4.31072e-22
-1.85933e-22
-7.91972e-23
-3.33423e-23
-1.3883e-23
-5.71943e-24
-2.33186e-24
-9.40926e-25
-3.7572e-25
-1.48423e-25
-5.79764e-26
-2.23761e-26
-8.52383e-27
-3.19992e-27
-1.18131e-27
-4.27514e-28
-1.50968e-28
-5.16429e-29
-1.69046e-29
-5.17503e-30
-1.40778e-30
-2.90052e-31
-4.69615e-33
4.30219e-32
3.51299e-32
2.11312e-32
1.122e-32
5.5584e-33
2.63058e-33
1.27617e-33
1.01711
1.05369
0.921411
0.683085
0.468964
0.313124
0.204274
0.130365
0.0816992
0.0504205
0.0307073
0.0184843
0.0110104
0.0064953
0.00379697
0.0022002
0.00126398
0.000719904
0.000406468
0.000227472
0.000126152
6.93167e-05
3.77288e-05
2.03388e-05
1.08577e-05
5.73926e-06
3.0037e-06
1.55641e-06
7.98463e-07
4.05566e-07
2.03969e-07
1.01576e-07
5.00934e-08
2.44661e-08
1.18355e-08
5.67139e-09
2.69221e-09
1.26614e-09
5.8998e-10
2.72399e-10
1.24624e-10
5.6498e-11
2.53805e-11
1.12976e-11
4.98262e-12
2.17703e-12
9.42175e-13
4.03791e-13
1.71317e-13
7.19253e-14
2.98648e-14
1.22551e-14
4.96528e-15
1.98373e-15
7.80164e-16
3.01309e-16
1.13888e-16
4.19146e-17
1.48998e-17
5.04619e-18
1.58581e-18
4.34801e-19
8.38947e-20
-6.30727e-21
-1.9885e-20
-1.54018e-20
-9.31074e-21
-5.0387e-21
-2.55676e-21
-1.2427e-21
-5.85313e-22
-2.69026e-22
-1.21214e-22
-5.37033e-23
-2.3447e-23
-1.0104e-23
-4.30243e-24
-1.81183e-24
-7.55022e-25
-3.1147e-25
-1.2723e-25
-5.14655e-26
-2.06141e-26
-8.17412e-27
-3.20751e-27
-1.24475e-27
-4.77311e-28
-1.80632e-28
-6.73463e-29
-2.46777e-29
-8.85605e-30
-3.09607e-30
-1.04553e-30
-3.36094e-31
-9.99395e-32
-2.5657e-32
-4.3857e-33
6.32632e-34
1.20873e-33
1.06771e-33
1.01711
1.05369
0.921411
0.683085
0.468964
0.313123
0.204274
0.130366
0.0817019
0.0504258
0.0307154
0.0184951
0.0110229
0.00650851
0.00380991
0.00221205
0.00127422
0.000728317
0.000413071
0.000232445
0.000129761
7.18485e-05
3.94505e-05
2.14765e-05
1.15897e-05
6.19883e-06
3.28564e-06
1.72569e-06
8.98061e-07
4.63061e-07
2.36568e-07
1.19748e-07
6.00601e-08
2.98496e-08
1.47011e-08
7.17557e-09
3.47129e-09
1.66451e-09
7.91193e-10
3.72828e-10
1.74179e-10
8.06803e-11
3.7055e-11
1.6875e-11
7.62021e-12
3.41199e-12
1.51479e-12
6.66761e-13
2.90946e-13
1.25839e-13
5.39369e-14
2.29037e-14
9.63202e-15
4.00975e-15
1.65136e-15
6.72275e-16
2.70261e-16
1.0714e-16
4.18055e-17
1.60141e-17
5.99967e-18
2.18603e-18
7.67641e-19
2.55729e-19
7.83191e-20
2.03888e-20
3.26091e-21
-8.48725e-22
-1.27224e-21
-9.07335e-22
-5.30901e-22
-2.82277e-22
-1.41654e-22
-6.83334e-23
-3.20134e-23
-1.46575e-23
-6.5859e-24
-2.91227e-24
-1.26996e-24
-5.46925e-25
-2.32872e-25
-9.81085e-26
-4.09207e-26
-1.69045e-26
-6.91809e-27
-2.80507e-27
-1.12684e-27
-4.48404e-28
-1.76696e-28
-6.89156e-29
-2.65849e-29
-1.01331e-29
-3.81106e-30
-1.4116e-30
-5.13519e-31
-1.8275e-31
-6.32378e-32
-2.10683e-32
-6.6461e-33
-1.43293e-33
1.01711
1.05369
0.921412
0.683085
0.468964
0.313123
0.204274
0.130366
0.081703
0.0504281
0.0307192
0.0185003
0.0110293
0.00651565
0.00381719
0.00221899
0.00128044
0.000733606
0.000417362
0.000235783
0.000132261
7.36558e-05
4.07162e-05
2.23372e-05
1.21593e-05
6.5663e-06
3.5172e-06
1.86841e-06
9.8423e-07
5.1408e-07
2.66225e-07
1.3669e-07
6.95809e-08
3.51166e-08
1.75719e-08
8.71816e-09
4.28901e-09
2.09239e-09
1.0123e-09
4.85729e-10
2.31164e-10
1.09125e-10
5.11009e-11
2.37389e-11
1.09406e-11
5.00252e-12
2.26939e-12
1.02142e-12
4.56115e-13
2.02068e-13
8.88067e-14
3.8715e-14
1.67393e-14
7.17699e-15
3.05063e-15
1.28512e-15
5.36332e-16
2.21634e-16
9.06292e-17
3.66403e-17
1.46294e-17
5.7601e-18
2.232e-18
8.48792e-19
3.15488e-19
1.13908e-19
3.95501e-20
1.29713e-20
3.87268e-21
9.53819e-22
1.17e-22
-6.89253e-23
-7.74848e-23
-5.22424e-23
-2.98309e-23
-1.5644e-23
-7.78163e-24
-3.73114e-24
-1.74048e-24
-7.94425e-25
-3.56169e-25
-1.57265e-25
-6.85188e-26
-2.94981e-26
-1.25613e-26
-5.29496e-27
-2.21068e-27
-9.14517e-28
-3.7495e-28
-1.52378e-28
-6.13826e-29
-2.45069e-29
-9.69488e-30
-3.7987e-30
-1.47338e-30
-5.6523e-31
-2.14233e-31
-8.01006e-32
-2.94876e-32
-9.67716e-33
1.01711
1.05369
0.921412
0.683085
0.468964
0.313123
0.204274
0.130366
0.0817034
0.0504291
0.030721
0.0185029
0.0110326
0.00651941
0.00382119
0.00222294
0.00128412
0.000736839
0.000420073
0.00023796
0.00013394
7.49066e-05
4.16176e-05
2.29675e-05
1.25878e-05
6.85026e-06
3.70084e-06
1.98452e-06
1.0561e-06
5.57692e-07
2.92195e-07
1.51882e-07
7.832e-08
4.0064e-08
2.03304e-08
1.02342e-08
5.11074e-09
2.53194e-09
1.24446e-09
6.06866e-10
2.93638e-10
1.40984e-10
6.71722e-11
3.17615e-11
1.49049e-11
6.94222e-12
3.20944e-12
1.47279e-12
6.70878e-13
3.03351e-13
1.3616e-13
6.06661e-14
2.68301e-14
1.17774e-14
5.13092e-15
2.21821e-15
9.51491e-16
4.04865e-16
1.70846e-16
7.14731e-17
2.96303e-17
1.2166e-17
4.94396e-18
1.98667e-18
7.88481e-19
3.08594e-19
1.18847e-19
4.49048e-20
1.65731e-20
5.93486e-21
2.0395e-21
6.59208e-22
1.92007e-22
4.46098e-23
3.61903e-24
-4.74711e-24
-4.56106e-24
-2.95452e-24
-1.65594e-24
-8.59069e-25
-4.24321e-25
-2.02467e-25
-9.41195e-26
-4.28543e-26
-1.91804e-26
-8.4597e-27
-3.68363e-27
-1.58562e-27
-6.75394e-28
-2.84887e-28
-1.19065e-28
-4.93247e-29
-2.02594e-29
-8.25148e-30
-3.33271e-30
-1.33472e-30
-5.29936e-31
-2.08528e-31
-8.12838e-32
-2.96453e-32
1.01711
1.05369
0.921412
0.683085
0.468964
0.313123
0.204274
0.130366
0.0817035
0.0504295
0.0307217
0.018504
0.0110342
0.00652135
0.00382334
0.00222514
0.00128623
0.000738766
0.000421741
0.00023934
0.000135038
7.5748e-05
4.22411e-05
2.34155e-05
1.29006e-05
7.0629e-06
3.84188e-06
2.07593e-06
1.11407e-06
5.93714e-07
3.14153e-07
1.65026e-07
8.60539e-08
4.4541e-08
2.28822e-08
1.16673e-08
5.90438e-09
2.96556e-09
1.47835e-09
7.31471e-10
3.5924e-10
1.75129e-10
8.47507e-11
4.07157e-11
1.94196e-11
9.19603e-12
4.32384e-12
2.01869e-12
9.35878e-13
4.30863e-13
1.96989e-13
8.94419e-14
4.0331e-14
1.80608e-14
8.03207e-15
3.5473e-15
1.5557e-15
6.77445e-16
2.92888e-16
1.25703e-16
5.35459e-17
2.26334e-17