/*--------------------------------*- C++ -*----------------------------------*\
  =========                 |
  \\      /  F ield         | OpenFOAM: The Open Source CFD Toolbox
   \\    /   O peration     | Website:  https://openfoam.org
    \\  /    A nd           | Version:  7
     \\/     M anipulation  |
\*---------------------------------------------------------------------------*/
FoamFile
{
    version     2.0;
    format      ascii;
    class       volScalarField;
    location    "0.7";
    object      T;
}
// * * * * * * * * * * * * * * * * * * * * * * * * * * * * * * * * * * * * * //

dimensions      [0 0 0 1 0 0 0];

internalField   nonuniform List<scalar> 
2500
(
0.5
0.0669146
-0.0353169
-0.0277115
-0.00789976
0.00112931
0.00220711
0.000963794
3.88563e-05
-0.000206219
-0.000130475
-2.60559e-05
1.76156e-05
1.74837e-05
6.08561e-06
-9.06071e-07
-2.2076e-06
-1.1347e-06
-1.06174e-07
2.47854e-07
1.87028e-07
4.94e-08
-2.14018e-08
-2.78414e-08
-1.18578e-08
2.66837e-10
3.51193e-09
2.14393e-09
3.58757e-10
-3.65878e-10
-2.96191e-10
-3.79865e-11
9.68921e-11
9.13236e-11
3.33192e-11
-1.10276e-11
-2.48552e-11
-1.91148e-11
-8.51505e-12
-1.02812e-12
1.97643e-12
2.13044e-12
1.28925e-12
4.997e-13
6.38177e-14
-8.38305e-14
-8.82739e-14
-5.22955e-14
-2.14903e-14
-2.21821e-15
0.933085
0.5
0.14482
-0.0139075
-0.0411718
-0.0230289
-0.00507433
0.00215701
0.00250723
0.00101071
-9.38713e-08
-0.000255324
-0.000158213
-3.18213e-05
2.20241e-05
2.24005e-05
8.17946e-06
-9.48173e-07
-2.86442e-06
-1.56601e-06
-2.00086e-07
3.13629e-07
2.59133e-07
7.81297e-08
-2.34984e-08
-3.76109e-08
-1.76784e-08
-7.96795e-10
4.31567e-09
2.73248e-09
2.88778e-10
-7.22809e-10
-5.58284e-10
-8.89456e-11
1.85581e-10
2.10173e-10
1.17189e-10
2.51076e-11
-2.13939e-11
-2.90305e-11
-1.93092e-11
-7.97357e-12
-1.066e-12
1.46267e-12
1.58373e-12
9.54223e-13
3.84006e-13
7.38211e-14
-3.60035e-14
-4.52101e-14
1.03532
0.85518
0.5
0.182448
0.00830364
-0.0419281
-0.032441
-0.0120093
3.84408e-05
0.00307766
0.00201936
0.000522644
-0.000189734
-0.000261936
-0.000118925
-6.07706e-06
2.86043e-05
2.02422e-05
5.19537e-06
-2.2905e-06
-2.95633e-06
-1.27833e-06
8.18233e-09
3.71818e-07
2.41615e-07
5.18663e-08
-3.48835e-08
-3.69588e-08
-1.34819e-08
2.04918e-09
4.97301e-09
2.13635e-09
-5.68088e-10
-1.34822e-09
-8.6791e-10
-1.73787e-10
2.12613e-10
2.70873e-10
1.72074e-10
6.10986e-11
-3.54053e-12
-2.34347e-11
-1.98816e-11
-1.04714e-11
-3.34064e-12
6.36381e-14
9.60212e-13
7.90176e-13
4.18408e-13
9.98272e-14
1.02771
1.01391
0.817552
0.5
0.206389
0.0268058
-0.0388677
-0.0384381
-0.0184166
-0.00302402
0.00284105
0.00282245
0.00118552
4.2633e-05
-0.000296282
-0.000211922
-6.02234e-05
1.88442e-05
2.95094e-05
1.43557e-05
1.1795e-06
-3.31344e-06
-2.5429e-06
-7.37906e-07
2.42941e-07
3.74287e-07
1.7793e-07
1.02847e-08
-4.29286e-08
-2.90112e-08
-4.68051e-09
6.44589e-09
5.75333e-09
1.43237e-09
-1.40449e-09
-1.89265e-09
-1.14704e-09
-3.01724e-10
1.60921e-10
2.60097e-10
1.83048e-10
7.97927e-11
1.33296e-11
-1.25524e-11
-1.48866e-11
-9.303e-12
-3.87066e-12
-8.07583e-13
3.19843e-13
4.4312e-13
1.0079
1.04117
0.991696
0.793611
0.5
0.223365
0.042154
-0.0343031
-0.0421139
-0.0239644
-0.00647534
0.00197761
0.00332499
0.00186777
0.000400612
-0.000245072
-0.000285991
-0.000129612
-8.12814e-06
3.15017e-05
2.39232e-05
7.25718e-06
-1.97719e-06
-3.44954e-06
-1.76612e-06
-1.94062e-07
3.78674e-07
3.06229e-07
9.15196e-08
-2.8754e-08
-4.37932e-08
-1.71729e-08
4.86767e-09
1.0564e-08
6.48268e-09
1.0739e-09
-1.77507e-09
-2.08923e-09
-1.26303e-09
-4.04524e-10
6.99189e-11
1.98639e-10
1.5601e-10
7.7406e-11
2.17576e-11
-3.1866e-12
-8.6928e-12
-6.48871e-12
-3.22431e-12
-6.54217e-13
0.998871
1.02303
1.04193
0.973194
0.776635
0.5
0.236308
0.0551561
-0.0291433
-0.0442026
-0.0286476
-0.0100134
0.000663016
0.00351519
0.00249279
0.000838178
-0.00011014
-0.000325109
-0.00020245
-4.98928e-05
2.37012e-05
3.12743e-05
1.49729e-05
1.27558e-06
-3.50394e-06
-2.7941e-06
-8.95766e-07
1.99505e-07
3.8749e-07
1.91878e-07
6.09859e-09
-5.68906e-08
-3.94661e-08
-6.0226e-09
1.19269e-08
1.30089e-08
6.82056e-09
1.06439e-09
-1.6373e-09
-1.90656e-09
-1.17762e-09
-4.32105e-10
-1.05291e-11
1.23725e-10
1.11612e-10
6.13485e-11
2.17307e-11
2.0295e-12
-3.96548e-12
-3.42626e-12
0.997793
1.00507
1.03244
1.03887
0.957846
0.763692
0.5
0.246668
0.0663827
-0.0238073
-0.0451887
-0.0325522
-0.0134733
-0.000959179
0.00341734
0.00301639
0.00131432
9.7332e-05
-0.000320958
-0.000268328
-0.000102054
5.39661e-06
3.4257e-05
2.30065e-05
6.24885e-06
-2.38078e-06
-3.50803e-06
-1.73127e-06
-1.56907e-07
3.9927e-07
3.05202e-07
7.03262e-08
-5.98793e-08
-7.15064e-08
-3.30372e-08
1.46116e-09
1.49967e-08
1.32254e-08
6.50299e-09
1.16558e-09
-1.20703e-09
-1.48756e-09
-9.49237e-10
-3.84007e-10
-5.49539e-11
6.24112e-11
6.87284e-11
4.15069e-11
1.71778e-11
1.61753e-12
0.999036
0.997843
1.01201
1.03844
1.0343
0.944844
0.753332
0.5
0.255249
0.0762288
-0.0184971
-0.0453946
-0.0357829
-0.0167686
-0.00277965
0.00306919
0.00341666
0.00179625
0.00036231
-0.000271058
-0.000319196
-0.000159517
-2.27376e-05
3.13895e-05
2.99482e-05
1.23937e-05
-1.00436e-08
-3.6796e-06
-2.56084e-06
-6.57146e-07
3.37357e-07
4.38781e-07
1.88837e-07
-2.55751e-08
-9.70167e-08
-7.32975e-08
-2.63769e-08
4.78291e-09
1.44408e-08
1.15681e-08
5.55621e-09
1.17217e-09
-7.33533e-10
-1.01503e-09
-6.73669e-10
-2.93453e-10
-6.48414e-11
2.37823e-11
3.73584e-11
2.10396e-11
0.999961
0.997493
0.999962
1.01842
1.04211
1.02914
0.933617
0.744751
0.5
0.262537
0.0849758
-0.0133115
-0.0450396
-0.0384394
-0.0198576
-0.00471767
0.00251112
0.00368607
0.00225944
0.000669087
-0.000176902
-0.000349467
-0.000217257
-5.90419e-05
2.19447e-05
3.45451e-05
1.89591e-05
3.42809e-06
-3.24141e-06
-3.32472e-06
-1.31323e-06
1.62899e-07
5.77053e-07
3.81424e-07
8.4344e-08
-8.06659e-08
-1.05933e-07
-6.52799e-08
-2.01592e-08
5.11266e-09
1.17e-08
8.91679e-09
4.25757e-09
1.02779e-09
-3.66625e-10
-6.15308e-10
-4.27225e-10
-1.97412e-10
-5.51276e-11
1.18955e-11
1.00021
0.998989
0.996922
1.00302
1.02396
1.0442
1.02381
0.923771
0.737463
0.5
0.268847
0.0928295
-0.00829713
-0.0442768
-0.0406094
-0.0227243
-0.00671456
0.00178129
0.00382593
0.00268651
0.00100299
-4.23961e-05
-0.000355692
-0.000270676
-0.000101148
6.03048e-06
3.59938e-05
2.52787e-05
7.67992e-06
-2.21692e-06
-4.03913e-06
-2.21258e-06
-2.44013e-07
6.30073e-07
6.16298e-07
2.85618e-07
1.36088e-08
-9.74085e-08
-9.45252e-08
-5.17859e-08
-1.46101e-08
4.01128e-09
8.30549e-09
6.15683e-09
2.94368e-09
7.87897e-10
-1.4309e-10
-3.34689e-10
-2.48006e-10
-9.30765e-11
1.00013
1
0.997981
0.997159
1.00648
1.02865
1.04519
1.0185
0.915024
0.731153
0.5
0.274394
0.0999444
-0.00347339
-0.0432147
-0.0423674
-0.025367
-0.00872811
0.000913728
0.00384277
0.00306583
0.0013511
0.00012716
-0.000336274
-0.000315913
-0.000146328
-1.54847e-05
3.41313e-05
3.1075e-05
1.2711e-05
-4.91679e-07
-4.63854e-06
-3.42487e-06
-1.04699e-06
4.27976e-07
7.79169e-07
5.33116e-07
1.90159e-07
-2.22503e-08
-8.83593e-08
-7.3153e-08
-3.70747e-08
-9.92644e-09
2.62413e-09
5.28412e-09
3.85486e-09
1.85048e-09
5.35831e-10
-3.44091e-11
-1.67618e-10
1.00003
1.00026
0.999477
0.997178
0.998022
1.01001
1.03255
1.04539
1.01331
0.90717
0.725606
0.5
0.279329
0.106439
0.00115473
-0.0419321
-0.0437761
-0.0277924
-0.0107282
-6.2159e-05
0.00374584
0.00339006
0.00170221
0.000325457
-0.00029153
-0.000350432
-0.00019223
-4.1513e-05
2.91944e-05
3.64619e-05
1.88501e-05
2.39369e-06
-4.75758e-06
-4.80977e-06
-2.31149e-06
-1.96832e-07
7.02697e-07
7.15009e-07
3.99881e-07
1.13914e-07
-3.28761e-08
-6.76442e-08
-5.04772e-08
-2.41678e-08
-6.27535e-09
1.50173e-09
3.05767e-09
2.20825e-09
1.07894e-09
2.06534e-10
0.999982
1.00016
1.00019
0.998814
0.996675
0.999337
1.01347
1.03578
1.04504
1.0083
0.900056
0.720671
0.5
0.283765
0.112406
0.00559007
-0.0404869
-0.0448875
-0.030011
-0.0126939
-0.00112161
0.00354547
0.00365491
0.00204669
0.000545424
-0.000223784
-0.00037367
-0.000237865
-7.17445e-05
2.10175e-05
4.14026e-05
2.64947e-05
7.15241e-06
-3.6754e-06
-5.87794e-06
-3.84361e-06
-1.27183e-06
2.58524e-07
6.98213e-07
5.51528e-07
2.67427e-07
6.15097e-08
-2.98208e-08
-4.56822e-08
-3.15584e-08
-1.44473e-08
-3.68136e-09
7.67198e-10
1.6466e-09
1.00991e-09
0.999983
1.00003
1.00026
0.999957
0.998132
0.996485
1.00096
1.01677
1.03844
1.04428
1.00347
0.893561
0.716235
0.5
0.287787
0.11792
0.00983949
-0.0389224
-0.0457454
-0.032036
-0.0146106
-0.0022437
0.00325286
0.00385924
0.00237734
0.000780471
-0.000136432
-0.000386777
-0.000283975
-0.000107416
8.12171e-06
4.48411e-05
3.53993e-05
1.42553e-05
-5.8811e-07
-5.87529e-06
-5.14952e-06
-2.58726e-06
-5.4189e-07
4.04143e-07
5.55227e-07
3.7395e-07
1.61753e-07
2.97791e-08
-2.18636e-08
-2.78345e-08
-1.8071e-08
-7.96788e-09
-2.02959e-09
6.22637e-10
0.999994
0.999978
1.00012
1.0003
0.999599
0.997507
0.996583
1.00278
1.01986
1.04061
1.04321
0.998845
0.887594
0.712213
0.5
0.29146
0.123039
0.0139117
-0.0372715
-0.0463865
-0.0338808
-0.0164681
-0.00340975
0.00288099
0.00400635
0.00269157
0.00102725
-3.12583e-05
-0.000390544
-0.000331798
-0.000150842
-1.24127e-05
4.41969e-05
4.40037e-05
2.32719e-05
4.86807e-06
-4.11852e-06
-5.59425e-06
-3.7273e-06
-1.51004e-06
-1.33592e-07
3.72517e-07
3.80728e-07
2.27811e-07
8.92693e-08
1.27553e-08
-1.39437e-08
-1.54977e-08
-9.67304e-09
-3.03914e-09
1
0.999978
1.00001
1.00021
1.00025
0.999162
0.996984
0.996931
1.00472
1.02272
1.04237
1.04193
0.99441
0.88208
0.708541
0.5
0.294834
0.127814
0.0178164
-0.0355588
-0.046841
-0.0355583
-0.018259
-0.00460296
0.00244451
0.00410438
0.00299301
0.00128844
9.49533e-05
-0.000382046
-0.00038021
-0.000203326
-4.36778e-05
3.58981e-05
4.9414e-05
3.25253e-05
1.21578e-05
-4.12482e-07
-4.69859e-06
-4.23475e-06
-2.34168e-06
-7.69221e-07
4.13484e-08
2.73909e-07
2.32476e-07
1.26338e-07
4.52426e-08
4.71265e-09
-8.08783e-09
-7.27317e-09
1
0.999992
0.999971
1.00006
1.00029
1.00011
0.998686
0.996583
0.997489
1.00671
1.02537
1.04378
1.04049
0.990161
0.876961
0.705166
0.5
0.297951
0.132284
0.0215645
-0.0338028
-0.0471353
-0.0370833
-0.0199817
-0.00581257
0.00195505
0.00416225
0.00328912
0.00157231
0.000251722
-0.000352219
-0.000422843
-0.000262373
-8.66358e-05
1.69954e-05
4.83089e-05
3.94165e-05
1.97888e-05
4.71106e-06
-2.4063e-06
-3.82223e-06
-2.74688e-06
-1.30482e-06
-3.38877e-07
8.50784e-08
1.73667e-07
1.28648e-07
6.43429e-08
2.142e-08
-1.18689e-09
1
1
0.99998
0.999981
1.00013
1.00033
0.999903
0.998204
0.996314
0.998219
1.00873
1.02779
1.04489
1.03892
0.986088
0.872186
0.702048
0.499999
0.300846
0.136486
0.0251667
-0.0320194
-0.0472962
-0.038478
-0.0216479
-0.00704253
0.00141136
0.00417997
0.00358292
0.00188679
0.000451447
-0.000287011
-0.000447511
-0.000320057
-0.000138084
-1.29192e-05
3.84239e-05
4.13638e-05
2.57624e-05
1.01002e-05
8.37435e-07
-2.51127e-06
-2.57621e-06
-1.57557e-06
-6.51868e-07
-1.24904e-07
7.33057e-08
9.80625e-08
6.60743e-08
2.3337e-08
1
1
0.999995
0.99997
1.00001
1.0002
1.00032
0.999638
0.997741
0.996174
0.999086
1.01073
1.03001
1.04575
1.03727
0.982184
0.867716
0.699154
0.5
0.303547
0.140449
0.0286312
-0.0302247
-0.0473539
-0.0397743
-0.0232862
-0.00831847
0.00078975
0.00413746
0.00386167
0.00222931
0.000701398
-0.000172876
-0.000439268
-0.000364062
-0.0001903
-5.06207e-05
1.98258e-05
3.68977e-05
2.83287e-05
1.43959e-05
4.24178e-06
-6.26717e-07
-1.87748e-06
-1.5142e-06
-8.12651e-07
-2.9359e-07
-3.48174e-08
4.88601e-08
4.61259e-08
1
1
1
0.999986
0.999968
1.00005
1.00027
1.00027
0.999331
0.997313
0.996157
1.00006
1.01269
1.03204
1.04639
1.03556
0.978438
0.863517
0.696454
0.499997
0.306072
0.144197
0.03197
-0.0284252
-0.0473294
-0.0410022
-0.0249329
-0.0096827
4.40628e-05
0.00399006
0.00408933
0.00257788
0.000994776
-4.51763e-06
-0.000386251
-0.000381432
-0.000232911
-8.97267e-05
-4.7372e-06
2.63416e-05
2.66632e-05
1.65383e-05
6.97264e-06
1.34016e-06
-8.62068e-07
-1.16597e-06
-7.95593e-07
-3.8084e-07
-1.20789e-07
1.05487e-08
1
1
1
0.999999
0.999976
0.999976
1.0001
1.00032
1.00018
0.998997
0.996934
0.996254
1.00112
1.01461
1.03388
1.04684
1.03381
0.974842
0.859557
0.693918
0.499983
0.308442
0.147767
0.0352219
-0.0265895
-0.047204
-0.0421594
-0.0266046
-0.0111718
-0.00087843
0.00367777
0.00420973
0.00288943
0.0013061
0.000209156
-0.000285554
-0.000363398
-0.000256256
-0.000122613
-3.06169e-05
1.17496e-05
2.1145e-05
1.61237e-05
8.44711e-06
2.92082e-06
1.90361e-07
-6.55648e-07
-6.32747e-07
-3.83961e-07
-1.22682e-07
1
1
1
1
0.999993
0.999969
0.999995
1.00016
1.00035
1.00004
0.998649
0.99661
0.996455
1.00224
1.01647
1.03556
1.04714
1.03203
0.971382
0.8558
0.691515
0.499956
0.310693
0.15123
0.0384825
-0.0246146
-0.0468829
-0.0431728
-0.0282614
-0.0127828
-0.00200825
0.00314748
0.00416181
0.00310853
0.00159435
0.000444321
-0.000146117
-0.000308989
-0.000254686
-0.00014288
-5.27868e-05
-3.82672e-06
1.31506e-05
1.3471e-05
8.49298e-06
3.82032e-06
1.03617e-06
-1.2971e-07
-3.98557e-07
-2.70654e-07
1
1
1
1
1
0.999985
0.999966
1.00002
1.00022
1.00036
0.999873
0.998297
0.996345
0.996747
1.00341
1.01826
1.03708
1.0473
1.03024
0.968045
0.852219
0.689221
0.499923
0.312884
0.154701
0.0419122
-0.0223135
-0.0461772
-0.0438768
-0.0297794
-0.014444
-0.00332466
0.00237949
0.00390154
0.00318355
0.00181343
0.000667593
1.28443e-05
-0.000225784
-0.000228359
-0.000147281
-6.73985e-05
-1.73604e-05
4.51323e-06
9.41913e-06
7.33255e-06
3.97598e-06
1.53691e-06
2.93973e-07
-1.87476e-07
1
1
1
1
1
0.999999
0.999977
0.999968
1.00006
1.00027
1.00034
0.999674
0.997951
0.996141
0.997124
1.00461
1.01998
1.03846
1.04734
1.02845
0.964835
0.848792
0.687005
0.499871
0.315052
0.15829
0.0456934
-0.0194502
-0.0448296
-0.0440268
-0.0309547
-0.0160084
-0.00474161
0.00140571
0.00342094
0.0030838
0.00192558
0.000845241
0.000167169
-0.000127609
-0.000182905
-0.000136386
-7.27487e-05
-2.67135e-05
-3.08056e-06
4.9862e-06
5.43579e-06
3.52124e-06
1.69394e-06
3.6489e-07
1
1
1
1
1
1
0.999994
0.99997
0.999978
1.0001
1.00032
1.00029
0.999451
0.997622
0.996004
0.997572
1.00581
1.0216
1.03971
1.04732
1.02673
0.96177
0.84546
0.684736
0.49965
0.317095
0.161993
0.0499369
-0.0158207
-0.0425829
-0.0433547
-0.0315428
-0.0172776
-0.00611779
0.000310343
0.00275559
0.00281013
0.00191223
0.000952429
0.000294467
-3.0376e-05
-0.000127358
-0.000113933
-6.94004e-05
-3.10548e-05
-8.52087e-06
1.04979e-06
3.32481e-06
2.73995e-06
1.24497e-06
1
1
1
1
1
1
1
0.999987
0.999965
0.999995
1.00015
1.00035
1.00022
0.999215
0.997321
0.995928
0.99806
1.00698
1.02314
1.0409
1.04737
1.02516
0.95879
0.841966
0.682
0.498795
0.318621
0.165572
0.0545769
-0.0113489
-0.0392689
-0.041648
-0.0313236
-0.0180505
-0.00728845
-0.000787774
0.00197778
0.00239533
0.00177845
0.000979022
0.000379615
5.21731e-05
-7.13691e-05
-8.53235e-05
-5.95916e-05
-3.07863e-05
-1.14235e-05
-1.85205e-06
1.46295e-06
1.66051e-06
1
1
1
1
1
1
1
1
0.999981
0.999965
1.00002
1.00019
1.00037
1.00013
0.998984
0.997056
0.995882
0.998529
1.00809
1.02467
1.04223
1.04765
1.02372
0.955543
0.83761
0.677877
0.496373
0.318854
0.168492
0.0593111
-0.00615409
-0.0348827
-0.0388231
-0.0301672
-0.018177
-0.00810686
-0.00176416
0.00117848
0.00189491
0.00154992
0.000930418
0.000417333
0.000111362
-2.28009e-05
-5.59841e-05
-4.63037e-05
-2.71331e-05
-1.20277e-05
-3.57391e-06
4.42148e-07
1
1
1
1
1
1
1
1
0.999996
0.999976
0.999969
1.00004
1.00023
1.00037
1.00004
0.99877
0.996792
0.995792
0.998935
1.00924
1.02645
1.04399
1.04825
1.02203
0.951079
0.831013
0.670839
0.490977
0.316679
0.169962
0.0636242
-0.000556995
-0.0296098
-0.0349639
-0.0280763
-0.0175989
-0.00847999
-0.00251788
0.000445525
0.00137253
0.00126469
0.000823978
0.000411594
0.000144482
1.36397e-05
-3.01208e-05
-3.23778e-05
-2.16098e-05
-1.10863e-05
-2.9769e-06
1
1
1
1
1
1
1
1
1
0.999993
0.999973
0.999974
1.00006
1.00026
1.00039
0.999965
0.998542
0.996444
0.995587
0.999354
1.01071
1.02887
1.04635
1.04879
1.01896
0.943615
0.820075
0.658855
0.480925
0.310849
0.169109
0.0668956
0.00498055
-0.0237987
-0.0303144
-0.0251906
-0.0163632
-0.00838702
-0.00299139
-0.000154477
0.000885644
0.000963228
0.000683094
0.000372771
0.000153937
3.65898e-05
-1.01494e-05
-1.9901e-05
-1.58451e-05
-7.36854e-06
1
1
1
1
1
1
1
1
1
1
0.999991
0.999968
0.999973
1.00008
1.00032
1.00043
0.999884
0.998203
0.995913
0.99532
1.0001
1.013
1.03225
1.04901
1.04803
1.01239
0.93056
0.802225
0.639777
0.464647
0.3003
0.165197
0.0685513
0.00995868
-0.0178878
-0.0252275
-0.0217557
-0.0146073
-0.00787719
-0.00317655
-0.000585869
0.000475454
0.000679956
0.000531158
0.000313939
0.000145357
4.73332e-05
3.29159e-06
-1.0266e-05
-9.33761e-06
1
1
1
1
1
1
1
0.999999
1
1
1
0.999986
0.999955
0.999968
1.00013
1.00042
1.00049
0.999691
0.997628
0.995221
0.995312
1.00174
1.01654
1.03638
1.05072
1.04365
0.999347
0.908894
0.77496
0.611874
0.441116
0.284457
0.157831
0.0682053
0.013949
-0.0123154
-0.0200932
-0.0180696
-0.0125241
-0.00705109
-0.00310776
-0.000844372
0.000162883
0.00043832
0.000387138
0.000247593
0.000125522
4.87154e-05
1.08484e-05
-4.63965e-06
1
1
1
1
1
1
1
0.999999
0.999999
1
1.00001
1
0.999972
0.999934
0.999983
1.00022
1.00055
1.00046
0.999242
0.996804
0.994671
0.996169
1.00484
1.02127
1.04004
1.04901
1.03235
0.976429
0.875843
0.736511
0.574346
0.410184
0.263426
0.147074
0.0657462
0.0166765
-0.00743987
-0.0152658
-0.0144241
-0.0103199
-0.00603386
-0.00284693
-0.000950422
-4.98932e-05
0.000249611
0.000263411
0.000183514
0.000100667
4.45314e-05
8.9499e-06
1
1
1
1
1
1
1
1
0.999999
1
1.00001
1.00001
0.999993
0.999946
0.999926
1.00005
1.00037
1.00063
1.00018
0.998492
0.996004
0.994885
0.998535
1.00943
1.02603
1.04068
1.04031
1.0104
0.940625
0.829637
0.686394
0.527635
0.372694
0.238006
0.133437
0.0613487
0.0180554
-0.00348906
-0.0110122
-0.0110595
-0.00817887
-0.00494908
-0.00246641
-0.000939083
-0.000174442
0.000114688
0.000165703
0.000127805
7.66227e-05
2.86447e-05
1
1
1
1
1
1
1
1
0.999999
0.999999
1
1.00001
1
0.99997
0.999929
0.999968
1.00018
1.00049
1.00048
0.999592
0.99768
0.995841
0.99656
1.00257
1.01447
1.02827
1.03459
1.02065
0.974544
0.890133
0.770086
0.625665
0.47342
0.330351
0.209545
0.117772
0.0554181
0.0181775
-0.000546728
-0.00748716
-0.00813764
-0.00623876
-0.00389948
-0.00203434
-0.000849978
-0.000229872
2.72675e-05
9.42014e-05
8.46508e-05
4.55939e-05
1
1
1
1
1
1
1
1
0.999999
0.999999
1
1.00001
1.00001
0.999987
0.999953
0.999953
1.00006
1.00029
1.00042
1.00004
0.998893
0.997392
0.997034
0.999936
1.00732
1.01743
1.02416
1.01755
0.986512
0.922891
0.824953
0.698772
0.556798
0.414329
0.285407
0.179678
0.1011
0.0484952
0.0172665
0.00143016
-0.00473593
-0.00573757
-0.00458252
-0.00295692
-0.00160522
-0.000719563
-0.000237249
-2.27602e-05
4.68486e-05
4.71658e-05
1
1
1
1
1
1
1
1
1
0.999999
1
1
1
0.999993
0.999975
0.999972
1.00003
1.00014
1.00023
1.00007
0.999487
0.998647
0.998347
0.999875
1.00415
1.01033
1.01445
1.0093
0.985787
0.93583
0.8555
0.74704
0.618821
0.483242
0.353465
0.240266
0.150052
0.0844393
0.0411527
0.0156168
0.00257481
-0.00271588
-0.00386629
-0.00324175
-0.00216105
-0.00121608
-0.000576608
-0.000215731
-4.61152e-05
2.22412e-05
1
1
1
1
1
1
1
1
1
1
1
1
1
0.999992
0.999985
0.999996
1.00003
1.00008
1.00007
0.999925
0.999626
0.99935
0.999554
1.00086
1.00357
1.00683
1.00774
1.00103
0.979746
0.937063
0.868627
0.774533
0.659988
0.534339
0.408821
0.293898
0.197118
0.122093
0.0686585
0.0339066
0.0135349
0.0030681
-0.00132686
-0.00247875
-0.00220786
-0.00152391
-0.000886948
-0.000440558
-0.000182205
-3.26187e-05
1
1
1
1
1
1
1
1
0.999999
1
1
1
0.999998
0.999989
0.999988
1.00001
1.00006
1.00007
0.999984
0.99977
0.999543
0.999597
1.00031
1.00193
1.00418
1.00581
1.00414
0.994985
0.97305
0.93305
0.871282
0.787134
0.683882
0.568387
0.449712
0.337134
0.238239
0.157681
0.0968553
0.0543968
0.0271603
0.0112937
0.00310046
-0.000441618
-0.00149993
-0.00144614
-0.0010376
-0.000623676
-0.000326592
-0.000109047
1
1
1
1
1
1
1
1
0.999999
1
1
1
0.999998
0.999987
0.999986
1.00002
1.00007
1.00009
0.999957
0.999668
0.999409
0.999588
1.00064
1.00268
1.00505
1.00605
1.00281
0.991518
0.967882
0.927926
0.868982
0.790652
0.695396
0.588456
0.477035
0.368942
0.271098
0.18838
0.12307
0.0749726
0.0420343
0.0211806
0.00910587
0.00284449
6.95893e-05
-0.000843947
-0.000909001
-0.000681647
-0.000429136
-0.000186967
1
1
1
1
1
1
1
1
0.999999
1
1
1
0.999998
0.999985
0.999983
1.00002
1.00008
1.0001
0.999961
0.999624
0.999306
0.999491
1.00071
1.00307
1.00574
1.00668
1.00273
0.990031
0.964735
0.923724
0.865296
0.789678
0.699271
0.598519
0.493346
0.390234
0.295168
0.212701
0.145408
0.0938028
0.0566801
0.031713
0.0161018
0.00711558
0.00243942
0.000322715
-0.000428078
-0.000545389
-0.000438158
-0.000239214
1
1
1
1
1
1
1
1
0.999999
1
1
1
0.999998
0.999985
0.999981
1.00002
1.00009
1.00011
0.999974
0.999616
0.99925
0.999398
1.00066
1.00319
1.00613
1.00726
1.00313
0.989712
0.963236
0.92102
0.862049
0.787211
0.69923
0.602348
0.50179
0.403079
0.311299
0.230438
0.162956
0.10966
0.0698827
0.041892
0.0233846
0.0119483
0.00540234
0.00198621
0.000411523
-0.000180014
-0.000315283
-0.00023901
1
1
1
1
1
1
1
1
0.999999
1
1
1
0.999999
0.999985
0.999981
1.00001
1.00008
1.00012
0.999986
0.999624
0.999232
0.999339
1.00058
1.00318
1.00629
1.00762
1.00357
0.989903
0.962768
0.919625
0.859846
0.784829
0.69772
0.602885
0.505294
0.409904
0.321114
0.242331
0.175697
0.122015
0.0808754
0.0509368
0.0302995
0.016871
0.00866503
0.00399357
0.00154996
0.000406344
-4.6006e-05
-0.000167495
1
1
1
1
1
1
1
1
0.999999
1
1
1
0.999999
0.999985
0.999981
1.00001
1.00008
1.00012
0.999992
0.999633
0.999232
0.999313
1.00053
1.00313
1.00632
1.0078
1.00388
0.990209
0.962797
0.919094
0.858632
0.783123
0.696067
0.602075
0.506125
0.412924
0.326442
0.24962
0.18424
0.130946
0.0893732
0.0583862
0.0363599
0.0214668
0.0119209
0.00614859
0.00287972
0.00116651
0.000357235
-1.86987e-05
1
1
1
1
1
1
1
1
0.999999
1
1
1
0.999999
0.999986
0.999981
1.00001
1.00008
1.00012
0.999994
0.99964
0.999238
0.999307
1.0005
1.00309
1.0063
1.00785
1.00405
0.990457
0.962984
0.919015
0.858107
0.782126
0.694809
0.600995
0.505787
0.413844
0.32892
0.253648
0.189508
0.136933
0.0954882
0.0641012
0.0412996
0.0254424
0.0149123
0.00825778
0.00427377
0.00202806
0.000859587
0.000199442
1
1
1
1
1
1
1
1
0.999999
1
1
1
0.999999
0.999986
0.999981
1.00001
1.00008
1.00012
0.999995
0.999643
0.999244
0.999309
1.00049
1.00306
1.00627
1.00785
1.00412
0.990605
0.963163
0.919107
0.857967
0.781654
0.694033
0.600112
0.50513
0.413795
0.329796
0.255595
0.192462
0.140642
0.0995849
0.0681955
0.0450615
0.0286506
0.0174679
0.0101664
0.00561339
0.00291126
0.00141342
0.000467836
1
1
1
1
1
1
1
1
0.999999
1
1
1
0.999999
0.999986
0.999981
1.00001
1.00008
1.00012
0.999994
0.999644
0.999247
0.999313
1.00049
1.00305
1.00624
1.00783
1.00413
0.990673
0.963282
0.919225
0.857992
0.781491
0.693639
0.599538
0.50454
0.41343
0.329903
0.256356
0.193936
0.142749
0.102134
0.0709362
0.047745
0.0310766
0.0195106
0.0117776
0.00680827
0.00374529
0.00196945
0.0007614
1
1
1
1
1
1
1
1
0.999999
1
1
1
0.999999
0.999986
0.999981
1.00001
1.00008
1.00012
0.999994
0.999644
0.999249
0.999316
1.00049
1.00305
1.00623
1.00782
1.00413
0.990695
0.963344
0.919313
0.858061
0.781475
0.693481
0.599228
0.504136
0.413058
0.329726
0.256529
0.194555
0.143827
0.103597
0.0726471
0.0495392
0.0327997
0.0210445
0.0130535
0.00780529
0.00447877
0.0024858
0.00105452
1
1
1
1
1
1
1
1
0.999999
1
1
1
0.999999
0.999986
0.999981
1.00001
1.00008
1.00012
0.999993
0.999644
0.999249
0.999318
1.00049
1.00305
1.00623
1.00781
1.00411
0.990695
0.963368
0.919363
0.858121
0.781508
0.693443
0.59909
0.503904
0.412785
0.329504
0.256464
0.194738
0.144305
0.104362
0.0736386
0.0506633
0.0339516
0.0221311
0.0140071
0.00858977
0.0050858
0.00293549
0.00132719
1
1
1
1
1
1
1
1
0.999999
1
1
1
0.999999
0.999986
0.999981
1.00001
1.00008
1.00012
0.999993
0.999643
0.999249
0.999318
1.00049
1.00305
1.00623
1.0078
1.00411
0.99069
0.963373
0.919386
0.858159
0.781545
0.693453
0.599046
0.503794
0.412622
0.329332
0.256345
0.194737
0.144472
0.104714
0.0741618
0.0513117
0.0346636
0.0228429
0.0146651
0.00915768
0.00554576
0.00329173
0.00155543
1
1
1
1
1
1
1
1
0.999999
1
1
1
0.999999
0.999986
0.999981
1.00001
1.00008
1.00012
0.999993
0.999643
0.999249
0.999318
1.0005
1.00305
1.00623
1.0078
1.0041
0.990683
0.96337
0.919394
0.858181
0.781577
0.693479
0.599045
0.503747
0.412524
0.329198
0.256212
0.194656
0.144489
0.104866
0.0744561
0.0517334
0.0351761
0.0233988
0.0152168
0.00966579
0.00598344
0.00365171
0.00180429
)
;

boundaryField
{
    upperWall
    {
        type            zeroGradient;
    }
    outlet
    {
        type            zeroGradient;
    }
    inlet
    {
        type            fixedValue;
        value           uniform 1;
    }
    lowerWall
    {
        type            fixedValue;
        value           uniform 0;
    }
    frontAndBack
    {
        type            empty;
    }
}


// ************************************************************************* //
