/*--------------------------------*- C++ -*----------------------------------*\
  =========                 |
  \\      /  F ield         | OpenFOAM: The Open Source CFD Toolbox
   \\    /   O peration     | Website:  https://openfoam.org
    \\  /    A nd           | Version:  7
     \\/     M anipulation  |
\*---------------------------------------------------------------------------*/
FoamFile
{
    version     2.0;
    format      ascii;
    class       volScalarField;
    location    "0.68";
    object      T;
}
// * * * * * * * * * * * * * * * * * * * * * * * * * * * * * * * * * * * * * //

dimensions      [0 0 0 1 0 0 0];

internalField   nonuniform List<scalar> 
45544
(
0
0
0
0
0
0
0
0
0
0
0
0
0
0
0
0
0
0
0
0
0
0
0
0
0
0
0
0
0
0
0
0
0
0
0
0
0
0
0
0
0
0
0
0
0
0
0
0
0
0
0
0
0
0
0
0
0
0
0
0
0
0
0
0
0
0
0
0
0
0
0
0
0
0
0
0
0
0
0
0
0
0
0
0
0
0
0
0
0
0
0
0
0
0
0
0
0
0
0
0
0
0
0
0
0
0
0
0
0
0
0
0
0
0
0
0
0
0
0
0
0
0
0
0
0
0
0
0
0
0
0
0
0
0
0
0
0
0
0
0
0
0
0
0
0
0
0
0
0
0
0
0
0
0
0
0
0
0
0
0
0
0
0
0
0
0
0
0
0
0
0
0
0
0
0
0
0
0
0
0
0
0
0
0
0
0
0
0
0
0
0
0
0
0
0
0
0
0
0
0
0
0
0
1.10974e-40
-2.09996e-34
-2.23912e-32
-3.08838e-29
5.59314e-28
9.52764e-27
-5.98218e-24
-4.30324e-24
-5.10632e-24
-3.40136e-24
-4.25757e-24
-1.45625e-24
-2.40469e-24
1.58858e-24
-1.62676e-24
-3.63472e-25
7.8703e-26
1.84686e-23
6.61047e-23
1.75148e-22
-1.13152e-21
-2.56533e-21
-1.23169e-21
-6.12429e-21
-1.28634e-20
-1.23684e-20
-7.47506e-21
-5.32186e-21
-8.50535e-21
-7.00174e-21
-1.13091e-21
3.59104e-21
1.57622e-21
5.82061e-21
1.71103e-20
2.56876e-20
2.47826e-20
1.24226e-20
1.59677e-20
-1.91563e-21
-2.09177e-20
-6.35787e-22
7.48712e-21
6.20107e-20
9.34795e-20
9.13552e-20
5.9648e-20
8.0179e-21
-4.19456e-20
-1.45461e-19
-1.44349e-19
-1.73048e-19
-1.54409e-19
-8.00223e-20
-1.76543e-20
2.46493e-20
4.78934e-20
7.28935e-20
8.64537e-20
6.98082e-20
5.37471e-20
2.09863e-20
1.33468e-20
5.14996e-21
-3.64854e-21
-5.94335e-21
-6.52587e-21
-5.65702e-21
-4.70038e-21
-2.95729e-21
-2.2771e-21
-1.55317e-21
-5.48654e-22
-1.87405e-22
2.52431e-23
1.29699e-22
1.64771e-22
1.37485e-22
1.24175e-22
8.81938e-23
5.67455e-23
4.1734e-23
2.0978e-23
1.59234e-23
1.06563e-23
3.28142e-24
1.29353e-24
-1.21514e-25
-3.18235e-25
-4.20715e-25
-4.51056e-25
-3.86762e-25
-2.92486e-25
-2.8863e-25
-5.76743e-24
-2.65572e-21
0
0
0
0
0
0
0
0
0
0
0
0
0
0
0
0
0
0
0
0
0
0
0
0
0
0
0
0
0
0
0
0
0
0
0
0
0
0
0
0
0
0
0
0
0
0
0
0
0
0
-9.01954e-126
0
-6.88776e-118
-8.60975e-118
-5.08061e-113
4.47573e-115
3.45158e-111
6.49662e-111
3.41129e-111
6.79248e-111
-7.83359e-110
3.01743e-109
1.78273e-107
-1.70672e-108
7.98712e-104
-2.27564e-104
3.31691e-101
-8.63805e-102
2.48465e-99
7.5777e-100
1.05328e-98
9.66069e-99
4.591e-99
1.24816e-99
1.70315e-97
-5.60341e-97
1.39799e-96
2.63729e-97
1.81271e-96
1.20292e-96
3.3376e-96
4.82439e-97
4.60121e-96
-5.86785e-96
4.15284e-95
-1.70044e-95
-3.22481e-94
1.15327e-93
-6.39822e-94
3.70033e-93
-1.35616e-93
2.41238e-93
-1.52297e-93
1.59804e-93
-4.84597e-93
3.99446e-93
-1.64063e-91
-1.82277e-91
-1.05842e-91
-1.43709e-91
-1.80552e-91
3.34583e-91
-8.047e-91
-3.81845e-91
-9.20425e-91
-8.81723e-91
-8.96206e-91
-7.72552e-91
-6.12517e-91
-3.20012e-91
1.9407e-89
2.3235e-89
-3.65813e-89
-8.08007e-90
1.23278e-89
-1.96585e-88
-1.8398e-86
3.0361e-87
-1.25765e-84
-7.51261e-85
-1.1064e-84
5.14337e-85
-1.06554e-84
4.79687e-85
-1.70809e-83
1.30594e-83
1.80761e-82
-6.6314e-82
1.15594e-81
-1.37356e-81
3.48105e-81
5.67294e-81
-2.18219e-80
1.51727e-79
-1.16807e-79
1.64717e-79
-1.05516e-79
2.81864e-79
-4.90474e-79
1.264e-78
-7.23666e-79
1.41865e-78
-1.43734e-78
2.66704e-78
-2.63209e-78
4.60965e-78
-1.46359e-77
2.02875e-77
-1.60327e-76
-9.96812e-77
-8.88121e-77
-1.86749e-76
2.26819e-77
-3.67375e-76
2.45998e-76
-5.22768e-76
4.92162e-76
-1.57356e-75
3.73961e-75
-6.78773e-75
2.76051e-74
2.31365e-74
1.94556e-74
3.58595e-74
-2.46704e-74
1.31192e-73
-1.44279e-73
2.83189e-73
-2.08464e-73
1.38662e-73
-2.28768e-73
1.09438e-73
-2.34212e-73
9.36011e-74
-5.8196e-73
-6.52411e-73
-7.62712e-74
-1.14583e-72
1.36853e-73
-1.39053e-72
5.73672e-73
-1.68048e-72
8.74877e-73
-2.08874e-72
1.90054e-72
-4.63615e-72
6.04735e-72
-6.73141e-72
1.73999e-71
2.68277e-73
2.98588e-71
-1.43439e-72
2.51197e-71
1.15067e-72
2.06977e-71
-5.01526e-72
4.56408e-71
-3.44132e-71
7.91923e-71
1.87239e-71
7.39458e-71
-7.1781e-72
4.76748e-71
6.52521e-71
7.80185e-72
2.95779e-70
-1.32786e-70
5.47129e-70
-3.3389e-70
7.15982e-70
-4.52803e-70
8.71886e-70
-6.54563e-70
1.27816e-69
-1.35104e-69
2.62389e-69
-1.76018e-69
2.81803e-69
-2.09119e-69
3.11352e-69
-2.23312e-69
3.1217e-69
-3.82925e-69
5.0175e-69
-5.18622e-69
4.0576e-69
-4.85286e-69
5.00806e-69
-6.36339e-69
7.91546e-69
-8.3325e-69
9.5197e-69
-9.55132e-69
1.0385e-68
-1.14466e-68
1.41365e-68
-1.39853e-68
1.60154e-68
-1.56164e-68
1.74888e-68
-1.92636e-68
2.05947e-68
-1.85789e-68
1.27107e-68
-1.72864e-68
6.88133e-69
-1.52888e-68
4.51724e-69
-1.35235e-68
5.41793e-69
-1.60441e-68
3.81725e-69
-1.32213e-68
8.25353e-69
-1.51399e-68
1.44233e-68
-1.81438e-68
1.70186e-68
-1.86553e-68
1.50778e-68
-1.88323e-68
1.58613e-68
-1.97296e-68
1.57982e-68
-1.97179e-68
1.6508e-68
-2.04498e-68
1.30727e-68
-1.88158e-68
1.13171e-68
-1.65409e-68
9.10976e-69
-1.49168e-68
6.99375e-69
-1.29172e-68
6.25988e-69
-1.09001e-68
5.80652e-69
-9.92334e-69
4.61583e-69
-7.88599e-69
4.52842e-69
-6.93032e-69
2.52258e-69
-5.79675e-69
2.41865e-69
-3.99431e-69
1.32944e-69
-1.90678e-69
2.93088e-69
-1.91342e-69
2.44561e-69
-1.44245e-69
5.77799e-70
-7.11435e-70
1.27587e-69
-1.11853e-70
8.81642e-70
4.68447e-70
2.19757e-70
7.20435e-70
-6.37253e-70
6.89359e-70
-2.24497e-70
8.1134e-70
-5.12944e-70
7.92829e-70
-2.44714e-70
1.23213e-69
-1.11781e-70
1.02404e-69
-2.51713e-72
1.21655e-69
-5.69373e-70
1.24111e-69
-1.9414e-70
1.0221e-69
-4.08233e-70
9.85579e-70
-4.11009e-70
8.18398e-70
-4.49367e-70
6.69418e-70
-4.78343e-70
5.61727e-70
-3.96975e-70
5.15077e-70
-7.27719e-71
8.06205e-71
-4.0866e-70
1.15076e-70
-2.94909e-70
-2.31505e-72
-2.7213e-70
-8.8504e-71
-3.56478e-70
-2.5086e-71
-2.36063e-70
-1.94548e-71
-8.94476e-71
-3.96841e-70
-3.8782e-70
-2.53997e-70
-2.6488e-70
-2.29657e-70
1.55652e-71
-2.75167e-70
-2.26711e-71
-2.59351e-70
-9.34141e-71
-2.14191e-70
-6.73017e-71
-1.89059e-70
-3.35101e-71
-2.26401e-70
-1.54661e-70
-1.74684e-70
-6.63793e-71
-1.50142e-70
-6.25863e-71
-1.1835e-69
-9.5482e-70
-1.57825e-68
4.37604e-68
-1.11156e-65
3.23174e-67
4.07244e-64
3.92977e-64
-8.67518e-63
-5.49269e-63
-4.37733e-60
2.08938e-61
4.54837e-58
2.96121e-58
-7.61064e-57
-1.60067e-56
3.73527e-56
3.03495e-55
-2.84319e-57
1.71784e-56
3.24282e-55
6.3877e-56
-3.45896e-52
-1.26878e-53
3.43786e-50
1.17581e-50
7.74732e-49
-8.03592e-49
-2.81654e-47
-2.51471e-47
-1.49789e-47
3.3831e-46
3.06798e-47
-1.16707e-45
2.67464e-44
1.54428e-45
-4.57043e-43
5.67908e-20
5.93695e-19
-2.10799e-18
2.60193e-16
3.71295e-15
-4.19695e-13
7.33272e-12
2.01331e-10
1.20538e-09
3.56771e-09
6.35857e-09
8.32473e-09
9.02507e-09
9.14983e-09
9.13401e-09
9.07034e-09
8.93733e-09
8.39356e-09
7.09318e-09
5.17077e-09
3.20785e-09
1.6943e-09
7.43615e-10
2.80325e-10
8.49346e-11
2.07041e-11
4.19144e-12
5.57091e-13
1.57268e-14
-9.94844e-15
-1.15854e-15
8.71893e-17
9.10204e-18
-1.05056e-18
9.32368e-21
4.65996e-21
-3.85796e-22
1.76051e-23
-6.14284e-25
1.57882e-26
-4.6676e-28
1.91476e-29
-1.07291e-30
4.6455e-32
-9.4776e-34
-8.98413e-37
5.81618e-37
-4.74916e-39
-1.87645e-40
1.07413e-09
-1.16125e-09
-6.42565e-11
4.41321e-10
-6.01434e-10
2.62075e-10
9.39292e-10
-1.27864e-09
-6.01409e-10
-9.93333e-10
-1.05761e-09
-4.12017e-10
-7.07818e-10
1.08181e-09
3.10652e-10
2.36023e-10
1.10436e-09
-5.79776e-10
-2.82431e-10
5.86761e-11
1.35637e-10
8.19875e-10
-4.54655e-10
1.88075e-09
9.84221e-10
-2.34507e-09
1.55353e-09
-1.17473e-08
-2.29621e-10
-9.47888e-09
-1.05456e-08
-1.21889e-08
-1.96094e-08
-1.13407e-08
-1.3853e-08
2.28915e-08
2.1773e-09
3.13467e-08
9.15026e-09
2.11411e-08
2.09204e-07
8.49279e-08
-2.91441e-08
1.51782e-07
-1.09505e-07
-1.60589e-07
2.46108e-07
1.34187e-07
7.87375e-08
2.30444e-07
-1.85456e-08
-6.1475e-08
-4.29702e-08
-3.79141e-08
9.78654e-08
6.4334e-08
1.39507e-07
1.64511e-07
-2.04229e-07
-8.12065e-08
6.67096e-08
-1.12037e-07
1.9311e-07
2.14921e-07
-1.13521e-07
2.72302e-08
1.13541e-08
-7.62989e-08
5.68341e-08
4.34168e-08
4.02179e-08
3.17034e-08
1.11345e-07
1.14482e-07
1.46642e-08
7.20638e-08
2.89588e-08
1.21784e-08
-2.52048e-10
3.51772e-10
-3.11491e-11
1.13937e-09
1.6439e-11
7.57909e-10
2.80355e-09
-3.5457e-09
2.25069e-09
2.66495e-08
-4.39701e-11
5.29692e-11
9.9767e-11
6.32522e-11
8.57597e-11
-4.757e-11
1.05436e-10
4.92502e-10
-4.11048e-10
2.48363e-10
-7.23606e-22
0
0
0
0
4.07808e-36
5.38973e-33
1.36766e-30
3.02377e-28
3.62743e-27
1.16247e-24
6.35133e-24
-1.05751e-24
4.86261e-24
-4.84381e-24
-3.40875e-24
-2.07758e-24
1.05819e-24
1.72769e-24
7.91388e-24
4.66906e-24
8.28409e-24
-8.78005e-23
7.05426e-22
-1.78317e-23
2.76672e-21
-4.93858e-23
-7.52021e-22
7.61282e-21
7.09087e-21
2.29859e-22
-8.92314e-21
-4.64542e-21
-4.70687e-21
-6.45895e-21
-6.99736e-21
-4.12875e-21
-1.40836e-21
-2.3028e-21
1.00547e-21
-1.94167e-21
2.26697e-20
8.76849e-21
-8.76361e-21
1.73966e-20
1.68345e-21
2.43551e-20
4.24531e-20
1.25252e-19
1.41662e-19
1.19528e-19
7.11092e-20
-9.41325e-20
-6.94865e-20
-2.1093e-19
-1.31096e-19
-2.08142e-19
-1.33074e-19
-6.56712e-20
-1.65749e-20
5.20642e-20
5.5593e-20
7.96658e-20
7.6998e-20
5.33963e-20
4.63971e-20
1.84587e-20
9.76539e-21
-8.29488e-22
-4.81328e-21
-7.98248e-21
-5.78759e-21
-6.05191e-21
-4.44139e-21
-3.03478e-21
-1.90914e-21
-1.19141e-21
-3.65433e-22
-9.14166e-23
8.46927e-23
1.43018e-22
1.87254e-22
1.33063e-22
9.59554e-23
8.3076e-23
5.25494e-23
3.59828e-23
2.07833e-23
1.31792e-23
8.38709e-24
2.90256e-24
8.27341e-25
-2.68818e-25
-3.64213e-25
-4.52296e-25
-4.13977e-25
-3.22737e-25
-1.46964e-25
1.18986e-24
0
1.7361e-23
0
7.32856e-20
-4.42532e-19
-5.7581e-43
-7.97311e-19
-6.09518e-19
1.94516e-16
-6.10928e-16
-4.0481e-14
-4.22227e-13
4.89085e-11
5.61346e-10
2.20454e-09
4.97158e-09
7.50225e-09
8.77691e-09
9.12855e-09
9.15117e-09
9.09609e-09
9.03532e-09
8.73322e-09
7.84777e-09
6.16537e-09
4.16893e-09
2.38672e-09
1.1613e-09
4.70682e-10
1.58729e-10
4.34262e-11
9.66891e-12
1.65945e-12
1.50754e-13
-1.12533e-14
-4.56159e-15
-8.13662e-17
4.47571e-17
-8.6187e-19
-2.65768e-19
2.24967e-20
-6.2101e-22
-2.53024e-23
3.57648e-24
-1.88269e-25
8.24078e-27
-2.95121e-28
8.72065e-30
-1.69072e-31
-9.86964e-34
1.54366e-34
-3.59966e-36
-3.44743e-38
1.45275e-39
-8.76693e-11
1.50715e-41
3.92545e-09
3.48823e-08
2.61826e-08
5.96995e-11
-3.57033e-10
-6.5916e-11
-6.25087e-10
-2.29714e-09
2.26717e-09
-7.2579e-10
-8.50878e-09
6.34562e-10
-2.77364e-10
3.18788e-08
-3.60372e-10
3.45541e-10
-1.36559e-11
9.73169e-11
1.10574e-10
2.68154e-10
-3.46986e-10
5.92701e-10
-3.26622e-10
2.02489e-10
0
0
0
-4.19247e-38
5.24335e-33
-5.20235e-31
-4.30968e-28
1.31532e-26
-2.72971e-25
2.81605e-23
-2.71277e-24
-2.52498e-24
-1.86793e-23
-1.33354e-23
-1.40152e-23
-3.78272e-24
-8.34205e-24
1.02655e-23
1.00942e-23
4.10295e-24
5.45715e-23
-5.77216e-22
-1.47057e-21
1.78402e-21
2.62229e-21
5.60787e-21
5.6828e-21
1.90935e-20
2.82824e-20
5.72379e-21
6.05125e-21
5.37111e-21
-2.24124e-20
-1.47327e-20
-4.2536e-21
-1.27847e-20
-5.26562e-20
-4.06988e-20
-3.70478e-20
-4.69951e-20
1.48224e-21
3.35874e-20
3.45504e-20
-7.82314e-20
-1.67246e-19
-1.73034e-19
-2.26014e-19
-5.36336e-20
2.28686e-20
2.06404e-19
2.33172e-19
4.02503e-19
3.12906e-19
2.97514e-19
8.9465e-20
-4.33053e-20
-1.07112e-19
-1.404e-19
-1.06386e-19
-1.11296e-19
-9.83216e-20
-5.68854e-20
-4.3159e-20
1.04254e-20
2.91786e-21
8.74837e-21
1.25036e-20
1.03748e-20
7.31941e-21
5.41582e-21
1.39917e-21
1.25144e-21
9.74124e-22
4.02553e-22
-5.51553e-22
-9.03732e-23
-3.00276e-22
-2.05746e-22
-1.14989e-22
-4.78518e-23
-6.79834e-23
-4.89368e-23
-6.06648e-24
-1.86211e-23
-4.10828e-24
-6.37973e-24
-4.91322e-24
2.84484e-24
-7.22699e-25
-3.15377e-25
9.90574e-26
-1.15025e-25
7.76943e-26
-1.76248e-26
-2.311e-26
-1.79676e-26
-1.0951e-24
8.17004e-24
1.54828e-17
6.35363e-17
5.82782e-15
-8.12547e-13
1.87009e-11
3.69748e-10
1.85705e-09
4.88537e-09
7.99645e-09
9.83271e-09
1.03814e-08
1.04663e-08
1.04048e-08
1.03626e-08
1.01239e-08
9.34579e-09
7.60402e-09
5.32247e-09
3.15839e-09
1.59586e-09
6.6686e-10
2.36833e-10
6.68475e-11
1.53163e-11
2.8219e-12
3.01967e-13
-9.14789e-15
-7.80796e-15
-3.35043e-16
7.95793e-17
3.44082e-19
-5.82667e-19
3.68865e-20
-3.47453e-22
-9.64157e-23
8.7288e-24
-4.16355e-25
1.79035e-26
-6.14339e-28
1.94663e-29
-4.59056e-31
1.19244e-33
2.97268e-34
-8.3406e-36
-4.47861e-38
3.56221e-39
4.31069e-41
5.88172e-10
-9.63492e-11
-3.60655e-10
1.52463e-10
-1.36835e-09
9.80586e-10
4.79383e-09
-6.23712e-09
1.55148e-09
2.51353e-08
-2.37163e-10
1.33242e-10
-8.76276e-11
6.18378e-13
-2.86095e-11
-1.57791e-10
4.14629e-11
1.52766e-10
-1.75453e-10
8.92993e-11
0
0
-2.56367e-43
-2.75734e-34
1.19383e-32
-3.34997e-29
-6.05532e-27
-2.22777e-26
-5.92047e-24
-3.14451e-23
-1.33031e-23
-1.44321e-23
-5.92883e-24
-7.16277e-24
-3.68043e-24
4.48395e-26
-1.79669e-24
-4.46236e-24
-6.50271e-25
-2.12073e-23
4.68126e-22
-1.23263e-21
3.71405e-21
9.38643e-22
4.82561e-21
3.72859e-21
-1.30237e-20
-3.5586e-21
-2.33328e-21
6.43142e-21
-1.99572e-21
9.67216e-21
6.11198e-21
-1.69593e-20
-2.27935e-20
-9.22958e-22
3.08285e-20
4.37607e-20
3.92647e-20
9.50245e-21
1.01032e-20
-4.14111e-20
-1.04946e-19
-7.23694e-20
-9.53506e-20
-1.99263e-19
-1.56829e-19
4.47116e-20
2.05421e-19
2.96878e-19
3.67953e-19
3.06479e-19
2.58121e-19
2.23721e-19
3.619e-20
-2.28109e-20
-1.11265e-19
-1.3026e-19
-9.93451e-20
-9.91392e-20
-4.28163e-20
-3.83775e-20
-5.79123e-21
-8.68024e-21
5.72631e-21
1.42278e-20
9.8496e-21
9.9043e-21
4.39897e-21
5.22132e-21
1.70553e-21
1.89419e-21
4.02647e-22
-5.66798e-22
-1.14401e-22
-3.25885e-22
-2.72945e-22
-1.79194e-22
-9.66377e-23
-6.44078e-23
-4.03921e-23
-1.91426e-23
-2.23021e-23
-1.58482e-24
-1.15667e-23
-5.4549e-24
1.11318e-24
-1.61652e-24
-1.07705e-25
3.50298e-25
-1.97317e-26
1.94603e-25
2.38049e-26
9.09739e-27
-4.0577e-26
-8.62693e-25
-8.00701e-24
-1.18101e-13
5.22403e-13
1.021e-10
9.27527e-10
3.22361e-09
6.52432e-09
9.14662e-09
1.02139e-08
1.04938e-08
1.04273e-08
1.03816e-08
1.02722e-08
9.80922e-09
8.59288e-09
6.49048e-09
4.17274e-09
2.2978e-09
1.0472e-09
4.07518e-10
1.28126e-10
3.26717e-11
6.90843e-12
1.02238e-12
5.16918e-14
-1.44258e-14
-2.37526e-15
1.0152e-16
2.16795e-17
-1.69613e-18
-2.98287e-20
1.14939e-20
-7.34312e-22
2.6746e-23
-7.28233e-25
8.32577e-27
-9.41896e-29
1.22574e-29
-1.53399e-30
8.92873e-32
-2.26571e-33
9.47078e-36
1.18121e-36
-1.36559e-38
-4.90639e-40
-1.87473e-42
4.10388e-10
-2.00433e-10
6.30652e-10
-2.71687e-10
-5.30253e-10
2.47583e-09
-3.29859e-09
-1.1012e-08
2.77806e-08
1.68088e-08
1.17851e-10
-1.13705e-10
-2.6569e-11
-3.38073e-11
1.1177e-11
1.0578e-10
-3.73173e-10
3.32734e-10
-2.00835e-10
1.16974e-10
0
1.57753e-18
-1.4319e-15
3.92443e-16
-2.34499e-18
-2.06832e-10
0
0
0
0
0
0
0
0
0
0
0
0
0
0
0
0
0
0
0
0
0
0
0
0
0
0
0
0
0
0
0
0
0
0
0
0
0
0
0
0
0
0
0
0
0
0
0
0
0
0
0
0
0
0
0
0
0
0
0
0
0
0
0
0
0
0
0
0
0
0
0
0
0
0
0
0
0
0
0
0
0
0
0
0
0
0
0
0
0
0
0
0
0
0
0
0
0
0
0
0
0
0
0
0
0
0
0
0
0
0
0
0
0
0
0
0
0
0
0
0
0
0
0
0
0
0
0
0
0
0
0
0
0
0
0
0
0
0
0
0
0
0
0
0
0
0
0
0
0
0
0
0
0
0
0
0
0
0
0
0
0
0
0
0
0
0
0
0
0
0
0
0
0
0
0
0
0
0
0
0
0
0
0
0
0
0
0
0
0
0
0
0
0
0
0
0
1.501e-18
-8.66546e-19
-1.78963e-18
2.60326e-17
0
-6.09101e-36
3.32569e-31
-1.05594e-29
-1.66677e-26
4.37629e-25
-3.57097e-24
2.52544e-22
5.73124e-23
-1.44604e-23
-1.30974e-22
-8.74177e-23
-8.84583e-23
-5.56101e-23
-1.25936e-22
-2.30869e-23
-2.68485e-23
-1.46431e-22
1.80401e-21
-1.6696e-20
-1.3301e-20
-2.39865e-20
-2.64981e-20
3.41412e-20
-8.37186e-20
-8.34859e-20
1.36263e-19
1.29243e-19
1.2892e-19
1.23892e-19
-1.81743e-20
1.55418e-19
2.83012e-19
1.51543e-19
-1.45323e-19
-3.32098e-19
-1.85696e-19
-4.37463e-19
2.36486e-20
7.32745e-19
7.61265e-19
2.09297e-19
-3.9644e-19
-8.56519e-19
-3.03353e-18
-3.23476e-18
-4.51096e-18
-3.41492e-18
-7.82058e-19
1.01537e-18
2.75394e-18
3.85896e-18
4.29852e-18
3.16048e-18
2.67496e-18
1.65411e-18
2.78481e-19
-4.22013e-19
-1.1834e-18
-1.27035e-18
-1.21028e-18
-7.78128e-19
-6.51574e-19
-4.74736e-19
-1.59244e-19
-6.21204e-20
1.83347e-20
5.68257e-20
6.33461e-20
6.45325e-20
6.07952e-20
4.71679e-20
2.52702e-20
1.88942e-20
7.82809e-21
3.74802e-21
2.02685e-21
-2.67021e-22
-8.4821e-22
-1.01707e-21
-9.19121e-22
-8.85412e-22
-6.32257e-22
-4.94804e-22
-3.88294e-22
-1.90821e-22
-1.40443e-22
-7.88425e-23
-3.03347e-23
-2.37544e-23
-7.25774e-24
-4.63419e-24
-1.10603e-24
2.27663e-24
-3.49279e-24
-8.60342e-22
-1.42358e-13
0
-1.45118e-21
0
0
0
0
0
0
0
0
0
0
0
0
0
0
0
0
0
0
0
0
0
0
0
0
0
0
0
0
0
0
0
0
0
0
0
0
0
0
0
0
0
0
0
0
0
0
0
0
0
0
0
0
-1.86953e-115
-1.90712e-123
-5.11542e-111
-1.00166e-111
3.3196e-109
5.15859e-109
-6.05614e-109
4.0639e-108
1.87386e-105
2.4991e-105
-5.37153e-106
5.36169e-105
5.61848e-102
1.39631e-103
4.18483e-99
-3.72979e-100
2.49219e-97
1.73296e-97
5.0926e-97
-6.16043e-98
1.8201e-96
-1.31566e-96
7.52694e-95
2.13739e-95
1.59232e-94
9.47305e-95
1.26866e-94
3.31995e-95
3.81757e-94
-1.53597e-94
7.30019e-94
3.28355e-94
5.2407e-93
-1.22258e-92
-2.10007e-92
7.30961e-92
1.17052e-92
2.17812e-91
-5.76461e-92
2.92609e-91
-1.96673e-91
5.89795e-91
-5.33548e-91
-3.1246e-92
-6.67664e-90
-6.58234e-90
-5.50237e-90
-4.80768e-90
-7.06024e-89
-4.43482e-89
-9.85804e-89
-7.75463e-89
-6.99266e-89
-5.0272e-89
-8.62442e-89
-3.7861e-90
-1.65942e-88
-1.6687e-88
1.0635e-87
7.29225e-88
-3.43983e-87
-5.40389e-88
-1.28468e-87
-1.98994e-86
-6.23164e-85
-3.36479e-84
-9.92076e-83
-1.04313e-82
-3.1632e-82
1.07224e-81
-3.9638e-82
5.53126e-82
-3.61603e-81
2.42371e-81
3.68798e-80
-5.91439e-80
3.16478e-79
-1.06131e-78
2.20901e-79
6.33527e-79
1.03381e-78
1.20171e-77
-5.45528e-78
2.65361e-77
-1.32307e-77
3.2611e-77
-1.69668e-77
9.09712e-77
-2.01609e-77
1.12838e-76
-7.50691e-77
1.35211e-76
-1.59361e-76
2.79225e-76
-7.8492e-76
7.85555e-76
-6.94294e-75
-6.49192e-76
-1.25846e-75
-1.65005e-74
4.40121e-75
-3.94801e-74
2.49483e-74
-1.05291e-73
8.01532e-74
-2.16375e-73
2.23916e-73
-2.46666e-73
9.74304e-73
3.08481e-73
2.98609e-73
2.01918e-72
-8.34764e-73
7.1091e-72
-7.64221e-72
1.67668e-71
-1.06867e-71
1.5577e-71
-1.64062e-71
2.13498e-71
-1.99487e-71
6.30454e-73
-1.50541e-71
-8.99563e-72
-2.14674e-71
-5.99368e-71
-1.54842e-72
-8.27736e-71
8.11755e-72
-5.09181e-71
7.1774e-71
-2.73208e-70
1.64496e-70
-2.91287e-70
3.56573e-70
-5.11825e-70
5.72085e-70
-4.06098e-70
1.00545e-69
-1.02817e-69
8.52233e-70
-6.25325e-70
1.06537e-69
-1.21529e-69
2.30186e-69
-1.1742e-69
2.63202e-69
-2.2919e-69
3.33753e-69
-1.25075e-69
3.49597e-69
5.75687e-69
4.4098e-70
1.35119e-68
-3.55178e-69
1.39384e-68
-1.18415e-68
3.35536e-68
-1.91709e-68
4.54852e-68
-2.62738e-68
4.57837e-68
-3.32997e-68
7.9993e-68
-4.86868e-68
9.13563e-68
-6.31747e-68
9.68438e-68
-7.24962e-68
1.00697e-67
-9.42863e-68
1.34287e-67
-1.23426e-67
1.79656e-67
-1.35613e-67
1.4149e-67
-1.77448e-67
2.39341e-67
-2.21889e-67
2.94152e-67
-2.76254e-67
3.2008e-67
-3.29355e-67
3.6999e-67
-3.63298e-67
3.64303e-67
-3.97986e-67
2.1932e-67
-3.80889e-67
2.23769e-67
-3.40374e-67
2.76631e-67
-3.04213e-67
2.30272e-67
-2.72964e-67
1.96955e-67
-2.60853e-67
2.1087e-67
-2.99608e-67
2.611e-67
-3.18918e-67
2.74713e-67
-3.6513e-67
3.2998e-67
-4.16641e-67
3.89969e-67
-4.12041e-67
2.7833e-67
-3.89394e-67
2.65235e-67
-3.57098e-67
2.80731e-67
-3.35057e-67
1.58234e-67
-2.75165e-67
2.44623e-67
-2.72173e-67
2.18336e-67
-2.30627e-67
1.38188e-67
-1.85908e-67
1.20016e-67
-1.62923e-67
1.01786e-67
-1.32209e-67
5.89307e-68
-5.04596e-68
7.8437e-68
-3.69459e-68
2.12602e-68
-2.92805e-69
2.54841e-68
2.06665e-69
1.00354e-68
4.88304e-68
1.82776e-68
4.50242e-68
8.03833e-69
4.25954e-68
6.6252e-69
5.62873e-68
-1.05364e-68
5.13599e-68
-2.68018e-68
6.73819e-68
-4.58961e-68
6.64229e-68
-2.32827e-68
6.16409e-68
-1.14466e-68
5.50605e-68
-9.35944e-69
4.88957e-68
-1.03034e-68
4.54516e-68
-1.44703e-68
4.1125e-68
-1.66264e-68
3.52032e-68
-1.96692e-68
2.26668e-68
-2.71692e-68
2.08505e-68
-2.90276e-68
2.11982e-68
-1.5807e-68
7.08024e-69
-1.44946e-68
-2.38098e-69
-2.07467e-68
-2.85159e-70
-1.00468e-68
-7.41963e-69
6.84325e-69
-1.40395e-68
-6.15437e-69
-1.54696e-68
2.48229e-69
-1.28171e-68
1.09573e-69
-1.52766e-68
4.26982e-70
-1.28588e-68
1.14847e-69
-1.08219e-68
5.74362e-70
-1.2078e-68
-1.9518e-69
-1.53088e-68
-5.77621e-69
-1.20996e-68
-2.93487e-69
-1.42504e-68
-1.55911e-69
-1.31111e-68
-1.95973e-69
-1.03322e-68
-1.8396e-69
-8.50814e-69
-1.87135e-70
-6.90935e-69
-1.16445e-69
-5.29572e-69
-5.37775e-70
-4.60405e-69
-1.77818e-70
-3.69183e-69
-2.69497e-70
-8.85409e-68
3.46629e-69
3.1869e-66
2.83451e-66
-1.74814e-65
-1.20304e-64
1.06882e-62
3.98709e-64
-1.16402e-61
-2.05092e-61
-1.78477e-59
-1.24184e-60
1.97891e-56
2.12161e-57
-1.06832e-54
-7.36067e-55
1.11239e-53
3.38907e-53
6.46278e-55
5.01943e-53
9.09319e-54
4.56663e-53
-1.40013e-51
-6.58683e-52
3.69118e-49
3.36763e-50
-1.88422e-47
-9.90214e-48
-4.5976e-46
4.58099e-46
1.46875e-44
1.35833e-44
-3.92543e-44
-1.04241e-43
1.05881e-43
-1.56464e-42
-6.81452e-44
-1.46638e-15
2.42383e-10
-1.26271e-10
-2.83131e-11
1.20876e-17
-9.44292e-16
-1.80238e-18
4.09913e-18
-4.09937e-18
5.16069e-15
-1.9277e-15
6.27835e-15
4.25182e-16
7.79964e-16
8.9246e-13
1.19832e-10
1.06223e-09
3.67542e-09
7.43646e-09
1.04197e-08
1.16387e-08
1.19663e-08
1.18805e-08
1.18404e-08
1.17084e-08
1.11822e-08
9.7885e-09
7.39092e-09
4.75552e-09
2.61959e-09
1.19542e-09
4.64086e-10
1.46257e-10
3.7256e-11
7.82622e-12
1.15936e-12
5.91296e-14
-1.6309e-14
-2.71248e-15
1.11589e-16
2.47465e-17
-1.88685e-18
-3.6533e-20
1.29978e-20
-8.1842e-22
2.89191e-23
-7.36805e-25
6.86481e-27
7.60478e-30
1.03764e-29
-1.59864e-30
9.57648e-32
-2.46506e-33
1.1311e-35
1.24307e-36
-1.47672e-38
-5.0446e-40
4.26385e-41
9.71378e-41
-3.96285e-42
5.77611e-10
1.4644e-10
-4.08964e-08
-4.9494e-10
1.33136e-09
8.79082e-10
1.3559e-10
6.84232e-10
1.97045e-10
2.98559e-11
2.71715e-10
2.568e-10
1.03524e-09
5.68425e-10
7.73665e-10
1.32302e-09
-1.48802e-09
1.57687e-10
-2.34253e-09
-1.14238e-09
-3.09712e-09
-1.55749e-09
-4.57335e-10
-1.60874e-10
3.23974e-09
3.46164e-09
4.60682e-09
5.36179e-09
5.7852e-10
4.34168e-09
-6.23672e-09
5.25746e-09
-9.37934e-09
2.35225e-09
4.02905e-09
4.42885e-09
1.03397e-08
2.12407e-08
-2.57578e-08
-2.62603e-08
-2.07667e-07
-2.7808e-07
2.28333e-07
6.18404e-08
2.39605e-07
3.89709e-07
-3.35816e-07
-2.00452e-07
-1.14527e-07
-4.31716e-07
3.38443e-07
2.56594e-07
8.57598e-08
3.30056e-07
-3.3347e-07
-2.8544e-07
2.44992e-08
-2.30721e-07
2.66041e-07
2.44168e-07
-9.12906e-08
7.06422e-08
-5.3247e-08
-8.07792e-08
-3.94815e-09
-8.20776e-08
1.75735e-08
-9.44055e-09
5.25335e-08
5.05222e-08
5.37505e-08
-3.74235e-09
4.90321e-09
-3.41938e-08
6.29365e-08
0
1.44144e-10
-3.14573e-12
4.92554e-10
2.35695e-11
3.20807e-10
-2.11265e-09
-7.95819e-09
1.72136e-08
2.90963e-08
1.11535e-10
2.87144e-10
6.4274e-11
7.12223e-11
4.11183e-11
-1.77908e-10
-2.85191e-11
-6.58539e-11
-9.00407e-12
-1.15527e-10
-2.43034e-10
1.93482e-10
-1.63068e-10
1.344e-10
0
0
0
-1.36039e-09
-1.49351e-09
1.48695e-10
1.85896e-07
6.7829e-08
1.05528e-07
-1.154e-10
-1.16839e-10
2.47778e-08
2.11867e-08
-2.37779e-10
8.07388e-11
-1.54536e-21
0
0
1.15538e-19
8.80736e-17
0
7.91869e-20
-8.16229e-42
-1.38783e-32
6.81275e-30
-1.32516e-27
-1.0898e-25
-2.14426e-25
-6.26313e-23
-2.63029e-22
-1.127e-22
-5.7864e-23
3.1579e-23
-3.27722e-23
-1.63865e-23
-4.69691e-23
-7.19811e-23
-7.20383e-23
-4.66656e-23
-4.1897e-22
2.0196e-21
-4.90481e-21
3.78116e-20
5.30358e-20
2.52615e-20
5.61183e-20
3.27918e-20
1.52009e-19
1.31665e-19
1.35613e-19
1.91086e-19
3.38949e-19
2.32576e-19
-1.3667e-20
-6.71446e-20
1.32828e-19
1.7845e-19
6.59259e-20
-1.25407e-19
1.09255e-19
2.7555e-20
-1.49014e-19
1.55775e-19
4.72693e-19
4.55628e-19
-1.73659e-18
-2.30732e-18
-2.63032e-18
-2.77018e-18
-1.32985e-18
3.10022e-19
1.70685e-18
2.97575e-18
4.72942e-18
3.39535e-18
3.29566e-18
1.87091e-18
5.10589e-19
-1.54802e-19
-7.65119e-19
-1.00911e-18
-1.20775e-18
-9.92243e-19
-7.73507e-19
-5.77911e-19
-2.80185e-19
-1.06564e-19
-1.96673e-20
3.94606e-20
7.61102e-20
6.35991e-20
6.39889e-20
4.91497e-20
3.07589e-20
2.19157e-20
9.47106e-21
4.31167e-21
2.63158e-21
4.95588e-22
-5.41698e-22
-1.00009e-21
-9.98363e-22
-9.14457e-22
-6.54365e-22
-5.53675e-22
-4.2715e-22
-2.65691e-22
-1.6742e-22
-9.01981e-23
-3.3643e-23
-2.76995e-23
-8.81025e-24
-5.73754e-24
-1.58663e-24
5.99719e-25
-6.27641e-24
-1.84165e-23
-1.07594e-28
-7.6496e-30
7.78766e-34
0
3.66486e-08
-8.78354e-13
2.23549e-11
4.24959e-10
2.12674e-09
5.56455e-09
9.11688e-09
1.12057e-08
1.18383e-08
1.19428e-08
1.18603e-08
1.18129e-08
1.15413e-08
1.06443e-08
8.65658e-09
6.06418e-09
3.59698e-09
1.81964e-09
7.61086e-10
2.69622e-10
7.59886e-11
1.74533e-11
3.21056e-12
3.42246e-13
-1.03756e-14
-8.8289e-15
-3.87313e-16
8.94413e-17
5.40932e-19
-6.58895e-19
4.07338e-20
-3.02203e-22
-1.11376e-22
9.75336e-24
-4.63876e-25
1.97627e-26
-6.7695e-28
2.14506e-29
-5.06562e-31
1.63182e-33
3.14418e-34
-8.99443e-36
-4.2497e-38
3.77694e-39
0
2.22493e-11
-2.67469e-08
-4.4012e-08
-5.04454e-11
0
-4.71755e-10
-1.56535e-10
-1.54979e-10
-2.92238e-10
2.55978e-09
-2.64981e-09
-4.01314e-10
2.40659e-08
1.76341e-08
5.28065e-12
-4.73864e-11
-1.0289e-10
-4.80187e-11
-1.70506e-12
-7.11528e-11
-7.24461e-11
-1.16416e-10
1.72957e-10
-3.34458e-10
9.96737e-11
-1.79269e-11
-5.91286e-11
0
1.19443e-22
2.39044e-38
4.67981e-12
4.53347e-11
-1.81535e-10
1.91912e-10
2.27619e-11
-5.83747e-09
-5.9814e-09
-2.44118e-10
-6.46735e-10
-1.14695e-09
-4.21734e-10
-1.06799e-39
-3.80709e-38
2.50512e-36
4.71616e-35
-5.57363e-33
1.76161e-31
-1.6027e-30
-3.97813e-29
1.84384e-27
-3.71028e-26
-2.90948e-25
3.6092e-23
-1.44948e-21
2.69662e-20
-1.55698e-19
-2.73132e-18
5.01219e-17
7.80101e-17
-5.14092e-15
-2.12896e-14
1.37747e-13
1.94224e-12
1.21025e-11
5.62921e-11
2.13747e-10
6.46534e-10
1.6169e-09
3.39074e-09
5.99312e-09
8.89346e-09
1.13726e-08
1.2672e-08
1.30582e-08
1.31434e-08
1.32162e-08
1.31884e-08
1.27402e-08
1.09746e-08
7.23825e-09
3.09457e-09
-1.2353e-21
2.01559e-23
-1.22461e-24
2.48232e-24
2.0478e-24
2.76979e-24
5.16269e-24
1.78589e-23
6.49985e-24
-2.47323e-23
2.3153e-23
-3.59574e-23
-3.82562e-23
5.19017e-23
2.62433e-22
4.20159e-22
5.72016e-22
6.97219e-22
9.59871e-22
7.17527e-22
-3.96021e-22
2.05525e-21
4.06075e-21
-3.2901e-21
-6.03292e-21
-1.05076e-21
-1.14052e-20
-6.456e-20
-8.0391e-20
-1.29332e-19
-1.5001e-19
-1.24095e-19
-1.79127e-19
-9.78597e-20
2.13138e-19
7.4157e-19
1.43827e-18
1.53055e-18
2.17514e-18
2.22321e-18
2.31951e-18
8.08835e-19
-5.06465e-19
-4.04292e-18
-5.75214e-18
-8.32692e-18
-7.8297e-18
-4.77914e-18
-5.52174e-18
1.45108e-19
2.64105e-18
5.96624e-18
5.72675e-18
4.53998e-18
6.52065e-19
1.20623e-18
-2.32444e-19
-1.82312e-18
7.16445e-19
3.71513e-19
-3.56198e-19
4.73806e-22
1.88675e-22
4.21854e-19
8.12338e-19
5.44101e-19
5.7071e-19
-3.62176e-20
-2.73101e-19
-1.63447e-19
-2.99457e-19
-8.70334e-19
-1.16476e-18
-4.19047e-19
8.50548e-21
-2.94634e-19
-1.04442e-19
-2.72511e-20
-1.67441e-20
1.27718e-21
-3.92475e-22
-2.60244e-22
-1.63737e-22
-2.73745e-22
-8.6706e-23
4.77901e-23
-5.17623e-23
-7.69827e-23
9.14976e-11
-7.97117e-11
1.14938e-10
-1.06196e-10
-7.1147e-11
4.15136e-11
1.13093e-11
2.38545e-08
1.6733e-08
-2.61858e-10
5.53125e-10
6.07851e-10
-9.66363e-11
-4.04892e-11
8.57211e-39
-2.64768e-38
-2.03226e-35
5.57998e-34
1.06217e-32
-1.20344e-30
4.66406e-29
-1.34846e-27
3.91244e-26
-9.53603e-25
2.0999e-23
-2.93671e-22
1.27091e-21
5.77151e-20
-1.29385e-18
4.79255e-18
1.42564e-16
-1.00539e-15
-1.40595e-14
4.58784e-16
6.2584e-13
5.21644e-12
2.69524e-11
1.12511e-10
3.81653e-10
1.04807e-09
2.41654e-09
4.5914e-09
7.45254e-09
1.02312e-08
1.21291e-08
1.29274e-08
1.30966e-08
1.31726e-08
1.32487e-08
1.30506e-08
1.21023e-08
9.23772e-09
5.0467e-09
0
-3.44205e-13
2.11275e-23
-8.3441e-24
-1.29516e-24
3.12661e-24
2.20504e-24
1.0735e-23
9.10857e-24
3.35502e-23
1.29331e-23
1.14553e-23
-3.22128e-23
-1.35076e-23
9.60644e-23
3.52606e-22
3.7308e-22
4.54935e-22
5.7816e-22
9.4943e-22
2.20374e-21
7.06343e-22
-1.42632e-21
-1.99237e-21
2.27807e-21
2.24874e-21
-1.03497e-20
-1.4601e-20
-5.56505e-20
-6.00484e-20
-9.28288e-20
-1.56261e-19
-1.59708e-19
-2.07945e-19
-1.51642e-19
5.39133e-20
-6.81279e-21
8.70099e-19
1.72855e-18
1.69125e-18
1.71952e-18
1.36149e-18
1.08127e-18
4.92356e-19
-3.15771e-18
-3.15798e-18
-5.2851e-18
-7.66983e-18
-7.09002e-18
-2.34666e-18
-2.52464e-18
3.40536e-18
6.51517e-18
6.63208e-18
6.72237e-18
4.01435e-18
1.32001e-18
-1.30215e-18
-1.35023e-18
-3.43973e-19
-1.03851e-18
-5.61057e-19
-7.05728e-19
2.05873e-19
-5.35209e-19
-1.8463e-19
5.64289e-19
6.39252e-19
2.56495e-19
-1.7356e-19
2.33872e-19
7.67312e-19
7.50346e-19
-3.63847e-20
6.70681e-21
1.55993e-19
4.03169e-20
6.15731e-20
-1.46748e-20
2.80617e-22
-1.98699e-22
-1.15553e-22
-1.63607e-24
-3.54748e-23
-1.59795e-22
1.47041e-22
1.00711e-22
3.0692e-22
2.45957e-23
-3.07291e-22
-6.46055e-22
3.60422e-23
-2.84271e-24
1.32605e-25
5.31576e-25
3.65187e-26
4.44945e-31
4.19264e-28
7.28101e-10
4.93314e-11
-1.40304e-12
4.56372e-12
2.3114e-10
1.64618e-09
-5.25796e-10
4.50305e-10
9.16132e-10
-2.90921e-11
4.17956e-11
-8.52986e-12
-9.26987e-12
0
0
0
0
0
0
0
0
0
0
0
0
0
0
0
0
0
0
0
0
0
0
0
0
0
0
0
0
0
0
0
0
0
0
0
0
0
0
0
0
0
0
0
0
0
0
0
0
0
0
0
0
0
0
0
0
0
0
0
0
0
0
0
0
0
0
0
0
0
0
0
0
0
0
0
0
0
0
0
0
0
0
0
0
0
0
0
0
0
0
0
0
0
0
0
0
0
0
0
0
0
0
0
0
0
0
0
0
0
0
0
0
0
0
0
0
0
0
0
0
0
0
0
0
0
0
0
0
0
0
0
0
0
0
0
0
0
0
0
0
0
0
0
0
0
0
0
0
0
0
0
0
0
0
0
0
0
0
0
0
0
0
0
0
0
0
0
0
0
0
0
0
0
0
0
0
0
0
0
0
0
0
0
0
0
0
0
0
0
0
-1.94637e-18
1.15599e-16
8.38301e-10
-4.6954e-10
0
2.32891e-26
7.09867e-32
-2.62402e-28
1.20951e-29
-1.76701e-28
2.7247e-24
9.36565e-25
-3.04129e-24
1.40802e-21
4.17586e-18
3.65225e-22
-3.60759e-21
1.01487e-35
-1.93699e-33
-1.53188e-21
2.99134e-11
5.20173e-22
2.07397e-21
1.04438e-21
1.72688e-21
8.73673e-22
-1.21063e-22
3.37535e-21
4.95148e-21
-1.91119e-23
1.76918e-22
7.1183e-22
2.9395e-22
7.02845e-21
-1.02338e-19
4.52076e-19
2.07815e-19
1.07697e-18
-3.07899e-19
5.0159e-19
8.66563e-18
7.45542e-18
2.39478e-18
-2.16824e-18
-3.16767e-19
4.69736e-19
-2.04581e-18
-5.9745e-18
-7.1059e-18
-1.16955e-18
5.64857e-18
3.41163e-21
-2.25523e-21
3.32025e-18
7.89406e-18
9.9376e-18
-1.66953e-17
-1.50857e-17
-1.43709e-17
-3.26492e-17
3.22043e-18
2.50927e-17
6.37511e-17
6.86195e-17
1.13955e-16
5.76523e-17
3.91302e-17
3.64685e-18
-4.81933e-17
-6.16719e-17