/*--------------------------------*- C++ -*----------------------------------*\
  =========                 |
  \\      /  F ield         | OpenFOAM: The Open Source CFD Toolbox
   \\    /   O peration     | Website:  https://openfoam.org
    \\  /    A nd           | Version:  7
     \\/     M anipulation  |
\*---------------------------------------------------------------------------*/
FoamFile
{
    version     2.0;
    format      ascii;
    class       volScalarField;
    location    "0.2";
    object      T;
}
// * * * * * * * * * * * * * * * * * * * * * * * * * * * * * * * * * * * * * //

dimensions      [0 0 0 1 0 0 0];

internalField   nonuniform List<scalar> 
23686
(
0.509941
0.910644
0.99728
0.975487
1.00717
1.01726
1.00285
1.00909
1.00026
1.00127
0.999749
0.99941
0.999891
0.999668
0.999994
0.999975
1.00001
1.00004
1
1.00002
0.999998
1.00001
0.999998
1
0.999999
1.00001
0.999998
1
0.999997
1
0.999998
1
0.999997
1
0.999998
1
0.999998
1
0.999997
1
0.999997
1
0.999998
1
0.999997
1
0.999997
1
0.999997
1
0.999997
1
0.999998
1
0.999998
1
0.999997
1
0.999998
1
0.999998
1
0.999997
1
0.999997
1
0.999997
1
0.999998
1
0.999998
1
0.999997
1
0.999997
1
0.999998
1
0.999997
1
0.999997
1
0.999997
1
0.999997
1
0.999998
1
0.999997
1
0.999997
1
0.999998
1
0.999998
1
0.999998
1
0.999998
1
0.999997
1
0.999998
1
0.999998
1
0.999998
1
0.999998
1
0.999998
1
0.999997
1
0.999997
1
0.999997
1
0.999997
1
0.999997
1
0.999997
1
0.999997
1
0.999998
1
0.999998
1
0.999997
1
0.999998
1
0.999997
1
0.999998
1
0.999998
1
0.999998
1
0.999998
1
0.999998
1
0.999998
1
0.999997
1
0.999997
1
0.999997
1
0.999998
1
0.999998
1
0.999998
1
0.999999
1
0.999998
1
0.999997
1
0.999997
1
0.999997
1
0.999997
1
0.999998
1
0.999998
1
0.999998
1
0.999997
1
0.999997
1
0.999997
1
0.999997
1
0.999997
1
0.999997
1
0.999997
1.00001
0.999997
1.00001
0.999998
1.00001
1
1.00004
1.00002
0.111641
-0.00310576
-0.000318008
5.44259e-05
-9.65624e-06
-3.35406e-08
2.35385e-07
-1.49794e-08
-6.60751e-09
-9.02943e-11
9.42967e-11
9.1276e-12
-4.80517e-14
-9.83513e-14
-8.26377e-15
-2.28863e-16
2.9863e-17
3.83416e-18
1.88818e-19
1.45854e-21
-7.45477e-22
-6.33252e-23
-2.6422e-24
-1.92429e-26
7.5978e-27
6.54133e-28
3.20785e-29
9.93549e-31
-6.25745e-33
-3.10136e-33
-2.546e-34
-1.152e-35
-2.90145e-37
-6.66721e-40
5.35168e-40
3.39311e-41
1.43332e-42
4.51843e-44
7.12302e-46
-2.26942e-47
-2.64657e-48
-1.49521e-49
-5.10415e-51
-1.23316e-52
-1.60472e-54
5.11306e-56
4.72061e-57
2.22622e-58
9.16021e-60
-1.99683e-77
7.12783e-61
-1.67438e-59
-2.22531e-57
-7.67474e-56
5.22553e-54
6.49435e-53
-3.83814e-51
1.95958e-50
-1.21922e-48
9.6027e-47
2.83566e-45
-2.13685e-44
2.63932e-43
5.22465e-42
9.53438e-41
-4.5792e-40
3.56188e-38
2.82278e-37
-2.20309e-37
2.56529e-35
-1.96501e-34
-5.09313e-34
-6.8466e-32
1.76106e-31
1.17408e-29
1.84185e-30
-2.72819e-28
1.18072e-27
-4.69032e-27
-1.84016e-26
2.29572e-26
-3.14001e-25
-7.10764e-25
8.18582e-24
-5.59673e-24
9.83288e-23
9.19525e-22
2.69001e-21
6.97016e-21
1.58118e-20
3.63529e-20
7.14806e-20
1.2619e-19
1.95237e-19
2.64088e-19
3.08855e-19
3.48767e-19
3.65384e-19
2.86491e-19
2.53338e-19
0.999931
0.999997
0.999922
0.999919
1.00013
0.999955
1.00038
1.00041
0.999475
0.999903
0.99931
0.999284
0.999175
0.999054
1.00061
1.00005
1.00418
1.00321
1.00819
1.00715
1.00324
1.0048
0.985485
0.991416
0.953334
0.963979
0.904875
0.919992
0.840411
0.860267
0.761011
0.784905
0.67401
0.699404
0.584262
0.610583
0.491394
0.518077
0.407041
0.430642
0.330408
0.3518
0.262677
0.281914
0.204679
0.220703
0.158087
0.170754
0.119337
0.129739
0.0887331
0.0969122
0.0644049
0.0708011
0.0468093
0.0514877
0.0336381
0.0371608
0.0234329
0.026067
0.0163626
0.0181912
0.0112473
0.0125587
0.00758706
0.0085057
0.00511509
0.00573594
0.00343146
0.00386106
0.00222864
0.00252448
0.0014641
0.00165387
0.000953047
0.00107946
0.000609524
0.000693967
0.000394137
0.000448891
0.00024674
0.000282752
0.000156361
0.000178755
9.75324e-05
0.000111868
5.943e-05
6.83984e-05
3.67401e-05
4.21894e-05
2.27066e-05
2.61392e-05
1.3536e-05
1.5672e-05
8.20789e-06
9.4724e-06
4.95795e-06
5.7322e-06
2.93793e-06
3.41768e-06
1.72301e-06
2.00411e-06
1.02083e-06
1.18358e-06
6.03923e-07
7.02409e-07
3.51694e-07
4.10506e-07
2.01835e-07
2.35838e-07
1.1732e-07
1.36881e-07
6.82822e-08
7.98817e-08
3.84752e-08
4.52232e-08
2.2151e-08
2.59522e-08
1.25536e-08
1.47511e-08
6.95224e-09
8.18276e-09
3.95417e-09
4.63866e-09
2.24146e-09
2.63706e-09
1.22512e-09
1.44759e-09
6.85297e-10
8.0673e-10
3.82979e-10
4.51399e-10
2.09814e-10
2.48693e-10
1.13913e-10
1.34937e-10
6.31444e-11
7.45509e-11
3.44653e-11
4.08082e-11
1.87834e-11
2.22636e-11
9.95941e-12
1.1827e-11
5.41678e-12
6.41286e-12
2.961e-12
3.51638e-12
1.5583e-12
1.85696e-12
8.41679e-13
1.00002e-12
4.49024e-13
5.34929e-13
2.36058e-13
2.81223e-13
1.25545e-13
1.4929e-13
6.69747e-14
7.98582e-14
3.451e-14
4.12711e-14
1.82406e-14
2.17271e-14
9.59313e-15
1.14401e-14
4.95991e-15
5.9297e-15
2.6272e-15
3.14232e-15
1.33368e-15
1.60068e-15
6.95339e-16
8.31934e-16
3.55714e-16
4.26754e-16
1.76723e-16
2.12243e-16
9.06712e-17
1.08485e-16
4.65651e-17
5.58939e-17
2.30008e-17
2.77081e-17
1.16917e-17
1.40628e-17
6.04825e-18
7.30342e-18
3.14278e-18
3.83371e-18
1.65518e-18
2.03958e-18
9.30818e-19
1.1637e-18
5.07577e-19
3.14559e-19
6.36682e-19
9.20341e-61
2.90297e-19
0.0139057
-0.00200322
0.000100649
-2.95619e-06
-3.37303e-06
4.58777e-07
4.34071e-08
-1.53094e-08
-1.64945e-09
1.47633e-10
3.46469e-11
1.56309e-12
-1.87367e-13
-3.20351e-14
-1.73283e-15
1.83353e-17
1.27479e-17
9.44005e-19
2.89156e-20
-1.3015e-21
-2.42149e-22
-1.42255e-23
-3.85854e-25
1.37924e-26
2.3694e-27
1.54017e-28
6.00936e-30
1.11859e-31
-8.28918e-33
-9.3123e-34
-5.78229e-35
-1.98049e-36
-3.2818e-38
1.26403e-39
1.43485e-40
7.40417e-42
2.59752e-43
6.63047e-45
9.96307e-48
-9.10678e-48
-6.48363e-49
-2.88437e-50
-8.27309e-52
-1.60974e-53
-5.62308e-57
1.84784e-56
1.06419e-57
4.58783e-59
-0.00133456
1.83059e-60
3.63105e-19
8.94743e-60
-3.41127e-59
-3.40153e-56
1.99409e-54
-6.48675e-54
-4.62921e-52
-1.38076e-50
6.61804e-49
3.64521e-49
-4.75184e-46
-1.44073e-44
7.17794e-44
8.60725e-43
-2.98087e-41
-2.58029e-40
-5.18443e-39
-1.23686e-37
4.40994e-37
-6.7683e-36
-1.2161e-34
1.92167e-33
-8.83741e-33
3.8845e-31
-3.53246e-30
-3.1367e-29
1.64002e-28
-1.96565e-28
1.78747e-27
1.54768e-28
7.20647e-26
-2.99397e-25
-2.57601e-25
9.09114e-25
7.47046e-24
-9.26227e-24
3.98742e-22
1.6217e-21
4.35739e-21
1.05458e-20
2.45826e-20
5.19802e-20
9.67129e-20
1.59926e-19
2.32816e-19
2.86732e-19
3.31992e-19
3.64156e-19
3.39186e-19
0.00014793
0.0642361
-2.64098e-05
0.453368
0.000138757
2.60371e-06
-1.05595e-05
1.33748e-06
1.6132e-07
-4.82884e-08
-6.24957e-09
4.0028e-10
1.25942e-10
6.81299e-12
-5.4077e-13
-1.21452e-13
-7.2605e-15
-1.55901e-18
4.28434e-17
3.78218e-18
1.35647e-19
-3.12747e-21
-9.13059e-22
-5.98071e-23
-1.85337e-24
3.0428e-26
9.05061e-27
6.37775e-28
2.6206e-29
6.01625e-31
-2.66547e-32
-3.46028e-33
-2.32576e-34
-9.12095e-36
-1.75774e-37
3.26946e-39
5.86524e-40
3.11666e-41
1.15814e-42
3.16473e-44
2.13174e-46
-3.40829e-47
-2.61361e-48
-1.27478e-49
-3.93985e-51
-8.07952e-53
-4.18941e-55
7.45918e-56
4.5474e-57
1.88254e-58
7.20695e-60
-5.6439e-59
-3.83911e-56
2.43963e-54
-8.10567e-54
-5.5012e-52
-1.54109e-50
7.96363e-49
-3.55457e-49
-5.50444e-46
-1.61316e-44
9.71566e-44
1.05115e-42
-3.54789e-41
-3.13211e-40
-6.25535e-39
-1.41991e-37
4.85797e-37
-8.34566e-36
-1.37441e-34
2.29791e-33
-1.03255e-32
4.5354e-31
-4.06992e-30
-3.53024e-29
1.87865e-28
-2.06448e-28
2.07057e-27
-1.78053e-28
8.55107e-26
-3.63641e-25
-3.29026e-25
1.27635e-24
9.05279e-24
-6.95462e-24
5.12472e-22
2.06515e-21
5.54664e-21
1.34108e-20
3.12734e-20
6.642e-20
1.2253e-19
2.03344e-19
2.9584e-19
3.64632e-19
4.19564e-19
4.59215e-19
4.23507e-19
1.05095e-59
-4.81633e-07
7.23941e-07
-3.9684e-08
-2.33849e-08
-6.51157e-10
2.95792e-10
3.53396e-11
2.04215e-13
-3.11298e-13
-3.26146e-14
-1.11885e-15
7.87607e-17
1.42812e-17
8.14989e-19
1.23329e-20
-2.33389e-21
-2.54332e-22
-1.19247e-23
-1.72919e-25
2.36e-26
2.50725e-27
1.37395e-28
4.43365e-30
1.28214e-32
-1.16722e-32
-9.26544e-34
-4.90191e-35
-1.41482e-36
-1.09034e-38
1.825e-39
1.42856e-40
6.39554e-42
1.98055e-43
3.88133e-45
-7.16119e-47
-1.0306e-47
-5.89815e-49
-2.33343e-50
-5.97886e-52
-8.87995e-54
1.70311e-55
2.02125e-56
9.56671e-58
3.69306e-59
-3.06186e-57
-9.02927e-56
6.78757e-54
6.57005e-53
-4.87925e-51
2.34865e-50
-1.16534e-48
1.17072e-46
3.10014e-45
-2.94094e-44
3.33826e-43
6.38692e-42
1.09056e-40
-5.47234e-40
4.22435e-38
3.42603e-37
-1.18365e-37
2.79335e-35
-2.44245e-34
-7.76293e-34
-7.79228e-32
1.97073e-31
1.3213e-29
2.52588e-30
-3.16679e-28
1.3967e-27
-5.48028e-27
-2.08779e-26
2.4054e-26
-3.98155e-25
-8.21117e-25
1.00072e-23
-6.3914e-24
1.31123e-22
1.16888e-21
3.42599e-21
8.87836e-21
2.01814e-20
4.64096e-20
9.08447e-20
1.59934e-19
2.48445e-19
3.36598e-19
3.92485e-19
4.40191e-19
4.57509e-19
3.68199e-19
-0.005281
-0.0055588
-2.37408e-59
0.594884
-0.00160559
0.942456
1.0034
0.979153
1.00794
1.01327
1.00267
1.00763
0.999962
1.00097
0.999673
0.99937
0.999906
0.99967
1.00003
0.999983
1.00004
1.00006
1.00003
1.00004
1.00002
1.00003
1.00002
1.00002
1.00003
1.00003
1.00002
1.00003
1.00002
1.00003
1.00002
1.00003
1.00002
1.00003
1.00002
1.00003
1.00002
1.00003
1.00002
1.00003
1.00002
1.00003
1.00002
1.00003
1.00002
1.00003
1.00002
1.00003
1.00002
1.00003
1.00002
1.00003
1.00003
1.00003
1.00002
1.00003
1.00002
1.00003
1.00003
1.00003
1.00002
1.00003
1.00003
1.00003
1.00003
1.00003
1.00002
1.00003
1.00002
1.00003
1.00002
1.00003
1.00002
1.00003
1.00002
1.00003
1.00002
1.00003
1.00002
1.00003
1.00002
1.00003
1.00002
1.00003
1.00002
1.00003
1.00003
1.00003
1.00003
1.00003
1.00002
1.00003
1.00003
1.00003
1.00002
1.00003
1.00003
1.00003
1.00003
1.00003
1.00002
1.00003
1.00002
1.00003
1.00002
1.00003
1.00002
1.00003
1.00002
1.00003
1.00002
1.00003
1.00002
1.00003
1.00002
1.00003
1.00002
1.00003
1.00002
1.00003
1.00003
1.00003
1.00002
1.00003
1.00002
1.00003
1.00003
1.00003
1.00002
1.00003
1.00002
1.00003
1.00003
1.00003
1.00002
1.00003
1.00002
1.00003
1.00002
1.00003
1.00002
1.00003
1.00002
1.00003
1.00002
1.00003
1.00003
1.00003
1.00003
1.00003
1.00003
1.00003
1.00002
1.00003
1.00002
1.00003
1.00002
1.00003
1.00002
1.00003
1.00002
1.00003
1.00002
1.00003
1.00002
1.00003
1.00003
1.00003
1.00002
1.00003
1.00002
1.00003
1.00002
1.00003
1.00002
1.00003
1.00003
1.00003
1.00002
1.00003
1.00003
1.00003
1.00003
1.00003
1.00003
1.00003
1.00003
1.00003
1.00003
1.00003
1.00003
1.00002
1.00001
0.999967
1.00001
-5.79494e-59
0.00260852
0.000234551
0.235596
-8.70911e-06
-3.83932e-06
7.64893e-07
8.80642e-08
-1.6912e-08
-2.87188e-09
3.54687e-11
3.6815e-11
3.75048e-12
2.85445e-14
-2.31005e-14
-2.55241e-15
-1.1671e-16
3.86239e-18
8.14503e-19
5.63918e-20
1.51847e-21
-1.05646e-22
-1.38957e-23
-8.37598e-25
-2.21655e-26
6.1091e-28
1.19575e-28
6.95262e-30
2.98003e-31
6.21969e-33
-2.71302e-34
-3.37791e-35
-1.85951e-36
-7.15643e-38
-1.28374e-39
3.28934e-41
4.80788e-42
2.67426e-43
9.52993e-45
2.53447e-46
2.20201e-48
-2.18829e-49
-1.73323e-50
-8.44789e-52
-2.60019e-53
-5.30461e-55
-3.34678e-57
4.47832e-58
2.38447e-59
-5.90615e-57
-0.00444987
-0.00527046
-0.00420726
1.29513e-60
5.14791e-19
7.00484e-19
-1.21819e-05
-1.16557e-05
0.517418
-6.48093e-56
1.03294e-53
5.04292e-53
-7.8878e-51
6.30363e-50
-1.40035e-48
1.72405e-46
3.92182e-45
-4.23023e-44
5.69461e-43
8.77271e-42
1.59433e-40
-8.37487e-40
6.42834e-38
6.3234e-37
-4.11671e-37
3.7795e-35
-2.68244e-34
-2.84859e-33
-9.68436e-32
6.05375e-33
1.99284e-29
2.5702e-29
-5.77004e-28
2.35336e-27
-9.60775e-27
-2.86938e-26
-1.49598e-26
-5.58468e-25
-1.08571e-24
1.64773e-23
-1.25623e-23
2.65177e-22
1.93974e-21
5.43199e-21
1.39365e-20
3.16129e-20
7.23217e-20
1.38754e-19
2.40634e-19
3.72071e-19
4.91423e-19
5.75585e-19
6.37409e-19
6.62423e-19
4.79048e-19
6.53271e-19
0.0528662
0.185683
0.0254875
7.92631e-05
0.000472446
6.58407e-05
1.01568e-05
0.999964
0.999918
1.00009
0.999999
1.00035
1.00049
0.999605
0.999954
0.99945
0.999338
0.999212
0.998948
1.00091
0.999796
1.00466
1.0033
1.0079
1.00813
1.00148
1.0066
0.98379
0.994232
0.952247
0.96955
0.903477
0.927357
0.839284
0.868647
0.760817
0.7952
0.67329
0.709589
0.584232
0.61939
0.493622
0.529277
0.407781
0.440148
0.33061
0.358544
0.265216
0.288833
0.207238
0.227966
0.158399
0.174754
0.120308
0.133373
0.0894287
0.0996293
0.0653105
0.0732967
0.047466
0.0533114
0.0341583
0.0384006
0.0239448
0.0271741
0.0166149
0.0188677
0.0113973
0.0129764
0.00772873
0.00884321
0.00519734
0.00595915
0.0034875
0.00399214
0.00229164
0.00264472
0.00149442
0.00172746
0.000964764
0.00111464
0.000629251
0.000728399
0.000405798
0.000468626
0.000256929
0.00029944
0.00016151
0.000188197
0.000100363
0.000117165
6.13539e-05
7.20161e-05
3.78869e-05
4.43908e-05
2.33847e-05
2.72974e-05
1.40939e-05
1.65817e-05
8.46755e-06
9.97275e-06
5.08283e-06
5.97822e-06
3.07193e-06
3.60848e-06
1.81155e-06
2.14698e-06
1.03924e-06
1.23066e-06
6.25536e-07
7.36456e-07
3.68119e-07
4.35292e-07
2.11031e-07
2.50777e-07
1.22428e-07
1.4516e-07
7.13567e-08
8.43051e-08
4.08271e-08
4.86296e-08
2.33143e-08
2.77394e-08
1.31681e-08
1.56819e-08
7.29662e-09
8.73167e-09
4.16186e-09
4.9583e-09
2.34793e-09
2.79044e-09
1.30167e-09
1.55714e-09
7.20508e-10
8.62566e-10
3.99052e-10
4.76576e-10
2.23339e-10
2.66114e-10
1.22051e-10
1.46687e-10
6.56942e-11
7.87263e-11
3.65292e-11
4.37225e-11
1.97932e-11
2.37099e-11
1.05553e-11
1.2716e-11
5.74345e-12
6.89458e-12
3.15726e-12
3.7712e-12
1.68123e-12
2.02576e-12
9.00956e-13
1.08359e-12
4.77115e-13
5.73513e-13
2.52655e-13
3.04629e-13
1.33694e-13
1.61213e-13
7.12907e-14
8.55703e-14
3.7371e-14
4.51188e-14
1.95082e-14
2.3572e-14
1.0091e-14
1.21602e-14
5.3694e-15
6.4721e-15
2.82865e-15
3.39502e-15
1.4552e-15
1.76184e-15
7.50371e-16
9.07679e-16
3.81333e-16
4.61232e-16
1.89917e-16
2.31075e-16
9.74169e-17
1.18042e-16
4.98895e-17
6.01919e-17
2.50724e-17
3.04433e-17
1.25961e-17
1.53158e-17
6.56446e-18
7.93811e-18
3.6172e-18
4.34701e-18
2.08428e-18
2.53236e-18
0.759782
1.59371e-59
-0.000418201
0.806078
-6.28482e-59
0.000212581
-1.9283e-58
1.0464e-59
1.67149e-07
3.74213e-07
-6.88304e-09
-8.85268e-09
-5.07825e-10
7.41165e-11
1.3169e-11
7.14821e-13
-4.41687e-14
-8.53954e-15
-6.48095e-16
-7.48841e-18
2.3583e-18
2.2726e-19
1.14798e-20
-4.57569e-23
-4.55463e-23
-3.72057e-24
-1.5801e-25
-1.20961e-27
3.45335e-28
3.1709e-29
1.53002e-30
4.96353e-32
5.56682e-35
-1.16114e-34
-8.66466e-36
-3.71652e-37
-1.13058e-38
-3.75556e-41
1.48191e-41
1.24027e-42
5.17348e-44
1.63982e-45
3.21125e-47
-4.16165e-49
-7.06244e-50
-3.88468e-51
-1.58719e-52
-3.84747e-54
-6.02431e-56
8.70311e-58
1.25284e-58
-7.4262e-57
-1.129e-06
-4.87658e-56
3.96955e-54
-1.64761e-53
-9.70079e-52
-1.69975e-50
1.17405e-48
4.52653e-49
-7.99156e-46
-2.46361e-44
1.94657e-43
1.64231e-42
-5.46062e-41
-5.56792e-40
-8.46563e-39
-2.18969e-37
5.10662e-37
-1.278e-35
-2.132e-34
3.61154e-33
-1.66284e-32
7.20545e-31
-6.12347e-30
-5.51769e-29
2.72757e-28
-9.29785e-29
2.44247e-27
7.46601e-28
1.42465e-25
-6.1311e-25
-4.43579e-25
3.08897e-24
1.11549e-23
6.76595e-24
8.92367e-22
3.29403e-21
8.66691e-21
2.07726e-20
4.82124e-20
1.03616e-19
1.84788e-19
3.03029e-19
4.32856e-19
5.34402e-19
6.01746e-19
6.614e-19
6.07026e-19
1.51552e-06
3.09165e-13
-1.8371e-58
1.19367e-11
1.25064e-18
-2.57026e-05
9.91384e-11
8.16972e-19
7.93748e-19
7.14542e-19
6.04239e-19
4.56603e-19
2.95641e-19
1.70068e-19
8.7592e-20
3.8459e-20
1.6842e-20
6.54031e-21
2.32229e-21
3.04783e-22
-1.55614e-23
1.94301e-23
-1.46432e-24
-7.06877e-25
2.99325e-27
-3.78679e-26
-1.1255e-26
2.74593e-27
-6.71968e-28
2.09158e-29
2.45406e-29
1.91137e-31
-1.33331e-31
-2.89303e-33
-4.37766e-34
4.9441e-35
-6.11951e-38
7.52603e-37
8.24224e-38
-1.0646e-39
2.03403e-40
1.22195e-41
6.90978e-43
-6.41714e-44
5.18988e-45
2.29992e-46
-1.69212e-48
5.9948e-50
-1.03586e-50
8.36033e-53
1.13459e-58
1.41963e-57
-2.50702e-56
-2.51892e-54
-1.18523e-52
-3.18402e-51
-6.64631e-50
-7.5921e-49
1.47649e-47
1.11896e-45
4.02098e-44
1.077e-42
1.61345e-41
7.74545e-41
-6.81073e-39
-2.81376e-37
-7.35889e-36
-1.20239e-34
-6.58954e-34
3.00907e-32
1.19589e-30
2.82536e-29
3.7735e-28
1.07406e-27
-1.06802e-25
-3.19528e-24
-4.69245e-23
-2.55032e-22
7.37619e-21
1.95063e-19
2.64123e-18
6.37177e-18
-4.82843e-16
-8.18987e-15
-6.32693e-14
7.32862e-19
8.15199e-19
7.48072e-19
6.62188e-19
5.32483e-19
3.70843e-19
2.26949e-19
1.2576e-19
5.84981e-20
2.52512e-20
1.04569e-20
3.95665e-21
1.04803e-21
1.86761e-24
1.39746e-23
3.18207e-24
-5.71824e-25
-7.33853e-25
1.73045e-25
6.52891e-28
3.39544e-27
-1.9335e-28
3.42542e-28
-6.66886e-29
-7.67788e-30
8.8669e-31
-1.97319e-32
4.56145e-33
-2.56864e-34
-1.65784e-35
7.0885e-37
-2.78151e-37
-1.16716e-38
-6.56118e-40
-6.92098e-41
2.0986e-42
2.36423e-43
-2.99337e-44
-1.02193e-45
-1.40624e-48
1.54003e-48
-6.53541e-56
4.7882e-58
1.54226e-57
-3.04371e-55
-1.81032e-53
-6.60477e-52
-1.48978e-50
-2.48313e-49
-5.06173e-49
1.56366e-46
6.98865e-45
2.1848e-43
4.51544e-42
4.88348e-41
-4.73546e-40
-5.07395e-38
-1.48844e-36
-3.06752e-35
-3.70271e-34
2.11686e-33
2.085e-31
5.72282e-30
1.14674e-28
9.8749e-28
-9.68359e-27
-6.46413e-25
-1.28791e-23
-1.37464e-22
4.02165e-22
4.36544e-20
7.76347e-19
6.26153e-18
-5.57095e-17
-2.17405e-15
-2.52051e-14
-8.16569e-14
2.83001e-12
3.89125e-11
1.59038e-10
-2.00419e-09
-2.26876e-08
2.15945e-08
1.00322e-06
-8.76549e-09
-3.41832e-08
3.0105e-07
-8.41515e-11
1.43183e-53
-1.4189e-55
5.09667e-54
-1.87596e-53
-1.12164e-51
-2.46142e-50
0.000272767
0.982221
1.00988
1.00366
1.00634
1.0139
1.00122
1.00485
0.999674
1.00014
0.999663
0.999363
0.999874
0.999644
0.999961
0.999877
0.999968
0.999925
0.999957
0.999906
0.999951
0.999892
0.999947
0.999891
0.99995
0.999885
0.999949
0.999891
0.999953
0.999893
0.999952
0.99989
0.999956
0.999897
0.999956
0.999894
0.999957
0.999898
0.999958
0.999898
0.999956
0.999897
0.999956
0.999897
0.999955
0.999899
0.999956
0.999896
0.999954
0.999893
0.999956
0.999897
0.999958
0.999899
0.999955
0.999898
0.99995
0.999893
0.999951
0.999888
0.999949
0.999893
0.999953
0.999891
0.999952
0.999892
0.999954
0.999895
0.999954
0.999893
0.999955
0.999895
0.999957
0.999898
0.999955
0.999896
0.999956
0.999897
0.999956
0.999898
0.999956
0.999898
0.999952
0.999894
0.999952
0.999893
0.999951
0.999895
0.999952
0.999891
0.99995
0.999896
0.999951
0.99989
0.999948
0.999895
0.999953
0.999893
0.999954
0.999897
0.999955
0.999901
0.999956
0.999897
0.999955
0.999894
0.999955
0.999896
0.999955
0.999896
0.999957
0.999898
0.999957
0.9999
0.999956
0.999899
0.999952
0.999894
0.999953
0.999893
0.999954
0.999895
0.999949
0.999893
0.99995
0.999889
0.999952
0.999892
0.999951
0.999895
0.999953
0.999895
0.999955
0.999896
0.999956
0.999902
0.999957
0.999898
0.999955
0.999895
0.999956
0.999897
0.999952
0.99989
0.999953
0.999896
0.99995
0.999891
0.999951
0.999893
0.99995
0.99989
0.999953
0.999892
0.999956
0.999896
0.999956
0.999896
0.999957
0.999898
0.999956
0.999898
0.999957
0.9999
0.999954
0.999896
0.999957
0.999896
0.999959
0.999904
0.999958
0.999898
0.999954
0.999895
0.999952
0.999893
0.999949
0.999888
0.999948
0.999893
0.999946
0.999888
0.999944
0.999893
0.999931
0.999887
0.999932
0.999889
0.99991
0.999943
0.999898
-2.13444e-50
-1.16193e-05
1.88135e-11
8.50229e-54
1.57918e-18
3.21206e-12
-1.19046e-08
-2.92369e-09
3.59451e-07
3.77191e-07
2.89924e-09
-2.01587e-08
-7.64925e-09
-1.82074e-08
-8.44372e-09
1.15918e-18
9.4173e-19
1.46041e-11
4.06776e-11
-4.92486e-58
9.0419e-12
9.31565e-12
1.03599e-18
1.39338e-13
-5.43802e-15
-1.502e-15
-1.06496e-16
-1.97025e-18
3.4508e-19
4.02439e-20
2.15983e-21
3.13268e-23
-5.25042e-24
-5.12522e-25
-2.87573e-26
-7.26421e-28
2.34457e-29
3.70374e-30
2.21765e-31
9.51005e-33
1.67218e-34
-8.20793e-36
-9.40092e-37
-5.05639e-38
-1.69826e-39
-3.78388e-41
6.48171e-43
1.01065e-43
5.68634e-45
2.33496e-46
5.78699e-48
4.45093e-50
-5.40374e-51
-3.87304e-52
-1.56584e-53
-4.63233e-55
-1.27947e-56
-1.42037e-05
-2.49602e-05
-1.94551e-51
-4.0137e-53
-7.4369e-56
1.09178e-53
3.03286e-53
-2.25423e-51
-1.6475e-50
-2.19573e-50
-3.49149e-50
-7.54427e-56
-2.0826e-55
2.46937e-48
-7.04605e-49
-1.55029e-45
-4.38354e-44
4.71785e-43
3.28203e-42
-1.10458e-40
-1.17211e-39
-1.59873e-38
-4.03079e-37
6.42839e-37
-2.65752e-35
-4.02854e-34
7.15516e-33
-3.08439e-32
1.41567e-30
-1.07035e-29
-1.1034e-28
4.94053e-28
1.83405e-28
3.62907e-27
3.70819e-27
2.83072e-25
-1.22911e-24
-7.52666e-25
7.21957e-24
1.51915e-23
4.41626e-23
1.83674e-21
6.35468e-21
1.64456e-20
3.92706e-20
9.1858e-20
1.90512e-19
3.45626e-19
5.56803e-19
7.78939e-19
9.48897e-19
1.08643e-18
1.17497e-18
1.44142e-18
-3.19228e-06
-1.05784e-05
-8.01967e-07
1.00003
0.999969
1.0004
1.0004
0.99983
1.00006
0.999544
0.999507
0.999094
0.99897
1.00051
0.999463
1.00396
1.00264
1.00724
1.00752
1.00189
1.00682
0.986987
0.996312
0.958676
0.974894
0.913959
0.936703
0.852524
0.881846
0.776113
0.81005
0.690338
0.726484
0.601416
0.637407
0.510037
0.545931
0.424361
0.457104
0.344841
0.373731
0.276816
0.301213
0.217062
0.237893
0.167097
0.184391
0.126519
0.140116
0.0946365
0.105415
0.0694763
0.0778234
0.0507614
0.0569032
0.0362749
0.0407397
0.0255809
0.0289687
0.0177552
0.020131
0.0122179
0.0139227
0.00827036
0.00947227
0.00560061
0.00641648
0.00375834
0.00430821
0.00245887
0.00284021
0.00162307
0.00187363
0.00104579
0.00121127
0.000682281
0.000789706
0.000436973
0.000505643
0.000279919
0.000325477
0.000175997
0.000204768
0.000109275
0.000127787
6.69621e-05
7.853e-05
4.17134e-05
4.88029e-05
2.5512e-05
2.98803e-05
1.52416e-05
1.79761e-05
9.28559e-06
1.09161e-05
5.59678e-06
6.59232e-06
3.35642e-06
3.95721e-06
1.98399e-06
2.34689e-06
1.15134e-06
1.36687e-06
6.86799e-07
8.09779e-07
4.04271e-07
4.7905e-07
2.31558e-07
2.75547e-07
1.36017e-07
1.6141e-07
7.81348e-08
9.25986e-08
4.53511e-08
5.39243e-08
2.58513e-08
3.07221e-08
1.45815e-08
1.7404e-08
8.12649e-09
9.74223e-09
4.64489e-09
5.53697e-09
2.59818e-09
3.10201e-09
1.4287e-09
1.71456e-09
8.03374e-10
9.60721e-10
4.46213e-10
5.3436e-10
2.47205e-10
2.96058e-10
1.34863e-10
1.61745e-10
7.41419e-11
8.911e-11
4.0484e-11
4.85856e-11
2.20201e-11
2.64969e-11
1.18089e-11
1.42362e-11
6.50096e-12
7.81762e-12
3.49607e-12
4.19181e-12
1.8957e-12
2.28681e-12
1.01374e-12
1.21869e-12
5.36232e-13
6.47287e-13
2.81559e-13
3.40999e-13
1.50599e-13
1.81689e-13
8.02771e-14
9.66163e-14
4.15445e-14
5.03466e-14
2.20651e-14
2.66615e-14
1.13589e-14
1.37594e-14
6.04619e-15
7.31216e-15
3.1374e-15
3.78457e-15
1.64294e-15
1.98791e-15
8.46802e-16
1.02359e-15
4.25722e-16
5.1632e-16
2.16992e-16
2.63206e-16
1.11184e-16
1.34949e-16
5.6388e-17
6.831e-17
2.80497e-17
3.42334e-17
1.44485e-17
1.75366e-17
7.64024e-18
9.25743e-18
4.19668e-18
5.05509e-18
3.293e-05
-7.66067e-06
8.76124e-19
-0.00459548
-1.05933e-10
-1.63663e-11
-0.00086362
7.46335e-05
1.13374e-18
-1.41352e-58
0.572282
-5.02503e-58
8.10395e-53
0.872924
1.8166e-18
-2.56006e-09
-7.39113e-10
7.71583e-07
9.91631e-08
2.18927e-53
1.39499e-06
2.39096e-11
1.11123e-18
7.90668e-13
1.12387e-14
-3.81392e-15
-4.53412e-16
-1.98513e-17
4.67995e-19
1.36041e-19
1.02201e-20
3.68794e-22
-8.38363e-24
-1.80708e-24
-1.28819e-25
-5.3105e-27
-3.29726e-29
1.15163e-29
9.87809e-31
5.0121e-32
1.50242e-33
-1.1147e-36
-3.33243e-36
-2.32016e-37
-1.01754e-38
-2.77175e-40
-2.48952e-42
3.34311e-43
2.60605e-44
1.20806e-45
3.86234e-47
7.14582e-49
-9.60211e-51
-1.54962e-51
-8.17583e-53
-2.88863e-54
-8.15688e-56
2.87587e-12
-1.32262e-56
1.32849e-18
0.0179659
-0.00337042
-4.48498e-53
3.05891e-53
-2.0837e-58
0.92113
-1.86092e-48
-1.705e-48
1.4981e-49
-4.69417e-48
1.45396e-49
3.28312e-46
6.37185e-45
-9.32266e-44
1.14628e-42
1.64121e-41
2.92205e-40
-1.58495e-39
1.2829e-37
1.3091e-36
-4.10127e-37
6.57912e-35
-4.70515e-34
-7.68229e-33
-1.60285e-31
-2.53209e-31
3.71043e-29
6.99612e-29
-1.15564e-27
4.50788e-27
-1.85884e-26
-5.23876e-26
-1.06257e-25
-9.68407e-25
-1.74707e-24
3.08426e-23
-2.57724e-23
6.02878e-22
3.80289e-21
1.03712e-20
2.64797e-20
6.02117e-20
1.3556e-19
2.57776e-19
4.47203e-19
6.74221e-19
8.82407e-19
1.02903e-18
1.1501e-18
0.000190946
4.39287e-46
2.45616e-18
0.0738149
0.000138942
1.45905e-18
1.35131e-18
1.17489e-18
9.56225e-19
6.82283e-19
4.22114e-19
2.31999e-19
1.10807e-19
4.73397e-20
1.97816e-20
7.62489e-21
2.15299e-21
3.63442e-23
1.92727e-23
7.7077e-24
-9.77144e-25
-1.46817e-24
3.44106e-25
4.02797e-27
5.20697e-27
5.61997e-29
6.24192e-28
-1.33695e-28
-1.36286e-29
1.73408e-30
-3.71918e-32
9.06406e-33
-4.87994e-34
-3.44029e-35
1.03127e-36
-5.10919e-37
-2.21662e-38
-5.67144e-56
-2.1655e-54
-6.63672e-53
-1.42423e-51
-1.55427e-50
3.47982e-49
2.65187e-47
9.44747e-46
2.23847e-44
3.53211e-43
5.53223e-43
-1.80937e-40
-7.68621e-39
-1.96108e-37
-3.2218e-36
-1.80433e-35
9.14591e-34
3.91682e-32
8.6167e-31
1.22353e-29
3.83099e-29
-3.54426e-27
-1.07171e-25
-1.7661e-24
-1.3797e-23
2.05722e-22
8.26288e-21
1.34623e-19
8.59571e-19
-1.15388e-17
-3.85763e-16
4.53259e-08
-4.91355e-10
1.42076e-18
1.27493e-18
1.08771e-18
8.2857e-19
5.46445e-19
3.14721e-19
1.64402e-19
7.24693e-20
3.19545e-20
1.25175e-20
4.52305e-21
6.87457e-22
-3.28066e-23
3.67716e-23
-2.44381e-24
-1.23618e-24
-8.51785e-26
-6.86858e-26
-2.18759e-26
5.29166e-27
-1.35528e-27
6.31556e-29
4.60251e-29
8.64461e-33
-2.28326e-31
-8.17194e-33
-7.8736e-34
8.71487e-35
3.98656e-37
1.56153e-36
1.62138e-37
-0.00678741
-0.00318312
-0.00996297
-2.07265e-39
3.74115e-40
2.30954e-41
1.38568e-42
-1.40459e-43
8.40502e-45
-3.31125e-55
-1.22111e-53
-3.2986e-52
-5.56969e-51
-8.55283e-51
3.63182e-48
1.73087e-46
4.67476e-45
9.31748e-44
1.0067e-42
-1.91469e-41
-1.18818e-39
-4.08596e-38
-8.47804e-37
-9.88382e-36
5.82917e-35
6.75485e-33
1.83334e-31
3.50486e-30
3.31552e-29
-3.44005e-28
-2.20102e-26
-4.5717e-25
-5.85239e-24
-4.83264e-24
1.56098e-21
3.61315e-20
4.03972e-19
1.78153e-19
-7.77349e-17
-1.43915e-15
-8.94018e-15
7.68142e-14
-1.83815e-57
0.646952
-1.69624e-56
9.68966e-07
3.27515e-07
-1.18993e-57
-4.23444e-15
-5.19919e-15
5.77105e-13
-7.94428e-57
-1.0492e-55
-1.37727e-39
-1.39772e-40
4.24312e-42
5.72216e-43
3.20453e-48
-5.3209e-44
-1.95824e-45
0.00044873
1.16773e-07
2.06975e-18
-2.36702e-39
1.00289
1.00823
1.01211
1.00301
1.00794
1.00018
1.00186
0.999568
0.999693
0.999741
0.999567
0.999907
0.999872
0.999948
1.00002
0.999943
1.00002
0.99993
0.99999
0.999918
0.999977
0.999932
0.999969
0.999918
0.999968
0.999919
0.999966
0.999927
0.99997
0.999918
0.999974
0.999917
0.999959
0.999915
0.99996
0.999915
0.999957
0.999921
0.999958
0.999914
0.999955
0.999913
0.999959
0.999918
0.999964
0.999917
0.999961
0.999917
0.999959
0.999914
0.999955
0.999916
0.999958
0.999918
0.99997
0.999933
0.999971
0.999918
0.999972
0.999923
0.999967
0.999927
0.999975
0.99992
0.999972
0.999917
0.999961
0.999916
0.999959
0.999916
0.99996
0.999921
0.999959
0.999913
0.999956
0.999917
0.999958
0.99992
0.999964
0.999915
0.999962
0.99992
0.999965
0.999919
0.999966
0.999922
0.99996
0.999918
0.999971
0.999933
0.999968
0.999915
0.99997
0.999924
0.999961
0.999919
0.999959
0.999915
0.999964
0.99992
0.999966
0.999919
0.999964
0.999918
0.999963
0.999923
0.999959
0.999914
0.999955
0.999916
0.999957
0.999919
0.999964
0.999915
0.999962
0.99992
0.999966
0.999923
0.999967
0.999918
0.999966
0.999924
0.999969
0.99993
0.999971
0.999916
0.999966
0.999921
0.999961
0.99992
0.999957
0.999915
0.999963
0.99992
0.999963
0.999917
0.999962
0.99992
0.999968
0.999928
0.999971
0.999919
0.999971
0.99992
0.999968
0.999923
0.999972
0.999917
0.999967
0.999921
0.999967
0.999922
0.999965
0.999917
0.99996
0.999916
0.999956
0.999918
0.999955
0.999916
0.999959
0.999918
0.999957
0.999915
0.99995
0.99991
0.999963
0.99992
0.999965
0.999917
0.999966
0.999917
0.999967
0.999929
0.999974
0.999918
0.999979
0.999926
0.999972
0.999931
0.999986
0.999931
0.999982
0.999943
2.45522e-06
0.999952
-1.12293e-57
0.113517
-2.71599e-56
1.51036e-18
0.228571
-3.79713e-09
-2.78996e-11
6.29631e-07
-2.7041e-06
-8.97562e-53
-1.65851e-10
-1.22405e-10
2.89466e-07
-1.05859e-06
1.01551e-06
-7.37502e-56
1.596e-12
1.30577e-13
3.3905e-07
8.16422e-07
3.38149e-07
-1.05153e-15
-2.52969e-16
-1.82167e-17
-5.36878e-19
3.84548e-20
5.58065e-21
3.73284e-22
1.05052e-23
-3.47535e-25
-6.1384e-26
-4.27295e-27
-1.66094e-28
-1.86311e-30
2.59662e-31
2.54499e-32
1.28113e-33
3.9342e-35
1.08861e-37
-7.10416e-38
-5.07579e-39
-2.37418e-40
-7.23063e-42
-8.07194e-44
5.74488e-45
5.33132e-46
2.61542e-47
9.32442e-49
2.06867e-50
-1.70337e-53
-2.2961e-53
3.5835e-12
4.17238e-12
1.83188e-18
-0.00734521
-1.8069e-56
-7.78256e-44
1.53482e-18
3.41978e-49
-4.33936e-48
-0.000135571
-1.22687e-54
-3.02026e-45
9.65384e-45
1.25303e-44
-9.43102e-44
1.08972e-42
6.53127e-42
-2.21522e-40
4.98086e-40
6.4985e-40
-2.80099e-39
-2.85862e-55
-2.20381e-55
-2.86884e-38
-7.72701e-37
7.28439e-37
-5.57431e-35
-7.42779e-34
1.39854e-32
-5.63405e-32
2.67695e-30
-1.91552e-29
-2.15124e-28
8.80307e-28
1.03581e-27
5.06064e-27
1.25133e-26
5.4186e-25
-2.39279e-24
-1.23464e-24
1.62933e-23
1.76511e-23
1.4815e-22
3.71691e-21
1.20657e-20
3.14182e-20
7.41043e-20
1.71044e-19
3.54018e-19
6.38429e-19
1.02353e-18
1.40481e-18
1.70592e-18
1.94038e-18
-9.81998e-53
-7.75146e-53
6.09288e-46
8.32414e-46
-3.74514e-45
1.00032
8.28727e-06
0.999923
1.00015
0.999547
0.999642
0.999011
0.998998
1.00008
0.999016
1.00319
1.00173
1.00675
1.0067
1.00307
1.00712
0.990683
0.999258
0.965783
0.98109
0.924938
0.94704
0.866887
0.896295
0.792674
0.826461
0.708955
0.74557
0.619819
0.657481
0.527621
0.564782
0.442095
0.475177
0.360008
0.391411
0.289011
0.314813
0.227572
0.249935
0.175998
0.194743
0.133697
0.148545
0.100819
0.112471
0.0741749
0.083392
0.0541596
0.06081
0.0386086
0.0436847
0.0271696
0.0308845
0.0189642
0.0216269
0.0131559
0.0150527
0.00894086
0.0102546
0.00609989
0.00700174
0.00406941
0.00470233
0.00266598
0.00308977
0.00178134
0.00205416
0.00114668
0.00133575
0.000742763
0.000860905
0.000475996
0.000554402
0.000304391
0.000356053
0.000191097
0.000223971
0.000120202
0.000141016
7.34701e-05
8.66852e-05
4.59061e-05
5.38735e-05
2.8023e-05
3.31468e-05
1.67502e-05
1.98357e-05
1.03347e-05
1.21257e-05
6.22654e-06
7.3731e-06
3.68529e-06
4.37275e-06
2.19965e-06
2.61819e-06
1.28598e-06
1.53828e-06
7.60939e-07
9.01441e-07
4.50119e-07
5.35585e-07
2.59496e-07
3.1069e-07
1.51344e-07
1.79989e-07
8.67783e-08
1.03661e-07
5.02598e-08
6.02011e-08
2.85273e-08
3.41858e-08
1.63485e-08
1.95895e-08
9.11381e-09
1.09923e-08
5.20079e-09
6.22528e-09
2.92346e-09
3.52626e-09