/*--------------------------------*- C++ -*----------------------------------*\
  =========                 |
  \\      /  F ield         | OpenFOAM: The Open Source CFD Toolbox
   \\    /   O peration     | Website:  https://openfoam.org
    \\  /    A nd           | Version:  7
     \\/     M anipulation  |
\*---------------------------------------------------------------------------*/
FoamFile
{
    version     2.0;
    format      ascii;
    class       volScalarField;
    location    "0.2";
    object      T;
}
// * * * * * * * * * * * * * * * * * * * * * * * * * * * * * * * * * * * * * //

dimensions      [0 0 0 1 0 0 0];

internalField   nonuniform List<scalar> 
45544
(
0
0
0
0
0
0
0
0
0
0
0
0
0
0
0
0
0
0
0
0
0
0
0
0
0
0
0
0
0
0
0
0
0
0
0
0
0
0
0
0
0
0
0
0
0
0
0
0
0
0
0
0
0
0
0
0
0
0
0
0
0
0
0
0
0
0
0
0
0
0
0
0
0
0
0
0
0
0
0
0
0
0
0
0
0
0
0
0
0
0
0
0
0
0
0
0
0
0
0
0
0
0
0
0
0
0
0
0
0
0
0
0
0
0
0
0
0
0
0
0
0
0
0
0
0
0
0
0
0
0
0
0
0
0
0
0
0
0
0
0
0
0
0
0
0
0
0
0
0
0
0
0
0
0
0
0
0
0
0
0
0
0
0
0
0
0
0
0
0
0
0
0
0
0
0
0
0
0
0
0
0
0
0
0
0
0
0
0
0
0
0
0
0
0
0
0
0
0
0
0
0
0
0
0
0
0
0
0
0
0
0
0
6.47091e-43
-3.64677e-42
2.49736e-38
-1.08837e-36
2.47852e-35
3.04142e-33
1.40738e-32
3.86622e-32
1.26362e-32
6.23117e-31
1.07631e-30
1.26718e-30
2.06804e-30
5.01045e-30
3.26013e-29
8.83459e-28
1.79353e-27
1.43416e-28
-5.54146e-27
-6.1792e-27
-2.83248e-26
-2.13691e-25
-4.95681e-25
-6.97342e-25
-5.97288e-25
-4.84947e-25
-3.61654e-25
-1.66035e-25
-1.39942e-26
3.7951e-26
5.36319e-26
1.16121e-25
9.36893e-26
7.6796e-26
4.55091e-26
2.72609e-26
1.71976e-26
1.04578e-26
6.13547e-27
2.9529e-27
1.5856e-27
5.25917e-28
2.64582e-28
1.06582e-28
8.56075e-30
-7.69286e-30
-9.43793e-30
-2.65213e-29
-1.36601e-29
-7.40358e-30
-5.07187e-30
-3.08973e-30
-2.13976e-30
-1.0944e-30
-5.52022e-31
-2.67618e-31
-1.26523e-31
-4.81335e-32
-2.21488e-32
-7.96308e-33
-2.12154e-33
-8.43234e-34
-3.24284e-34
2.32826e-34
1.75895e-34
9.69876e-35
5.86864e-35
3.62748e-35
2.90876e-35
1.36374e-35
6.5709e-36
3.39117e-36
1.51694e-36
7.27956e-37
3.1413e-37
1.24678e-37
5.57863e-38
2.3525e-38
9.00316e-39
3.72394e-39
1.38077e-39
5.82619e-40
2.40265e-40
8.76599e-41
1.82715e-41
9.0075e-42
-9.59745e-39
0
0
0
0
0
0
0
0
0
0
0
0
0
0
0
0
0
0
0
0
0
0
0
0
0
0
0
0
0
0
0
0
0
0
0
0
0
0
0
0
0
0
0
0
0
0
0
0
0
0
0
0
0
0
0
0
0
0
0
0
0
0
0
0
0
0
0
0
0
0
0
0
0
0
0
0
0
0
0
0
0
0
0
0
0
0
0
0
0
0
0
0
0
0
0
0
0
0
0
0
0
0
0
0
0
0
0
0
0
0
0
0
0
0
0
0
0
0
0
0
0
0
0
0
0
0
1.99835e-127
-7.70933e-127
1.21934e-123
1.51033e-123
7.17462e-123
9.52124e-124
8.47595e-120
1.01365e-119
2.32358e-119
2.86722e-119
1.48269e-119
1.82818e-119
1.32938e-119
-1.321e-120
3.08013e-118
3.65589e-118
3.93428e-118
4.69995e-118
3.00264e-117
3.37823e-117
2.82123e-117
1.94602e-117
2.60751e-115
3.04893e-115
1.66717e-115
1.92727e-115
1.25305e-115
4.95224e-116
5.29907e-115
5.86625e-115
4.71271e-115
6.05409e-115
7.16631e-110
6.54198e-112
6.05397e-106
7.55262e-106
3.84801e-106
4.79628e-106
2.5173e-105
-7.47525e-105
2.88604e-103
3.40711e-103
3.41251e-103
4.12394e-103
9.24774e-103
9.6423e-103
7.08016e-103
4.2637e-103
8.05506e-102
9.80731e-102
5.70171e-102
4.67878e-102
1.87156e-101
2.12437e-101
1.1777e-101
1.3346e-101
6.25246e-102
6.88569e-102
4.11395e-102
3.9058e-102
1.98598e-101
2.28331e-101
1.70111e-100
1.99283e-100
3.02152e-99
3.53949e-99
1.95365e-99
2.28876e-99
1.35661e-99
1.42106e-99
3.89127e-98
3.8869e-98
1.01201e-97
1.18466e-97
6.35126e-98
7.17565e-98
3.10083e-97
-8.64151e-97
5.42945e-96
4.99566e-96
4.33151e-96
3.60187e-96
3.06938e-96
2.4013e-96
2.88902e-96
-5.75951e-97
6.58851e-95
6.71649e-95
6.49087e-94
6.07517e-94
4.30627e-94
4.04963e-94
2.93854e-94
2.8151e-94
2.00839e-94
1.89207e-94
1.49168e-93
1.439e-93
3.04029e-93
3.48619e-93
1.91662e-93
2.1889e-93
1.29787e-93
1.17517e-93
2.24228e-93
2.2975e-93
2.20403e-93
2.42221e-93
2.42726e-93
2.34276e-93
1.70919e-93
1.01525e-93
2.30886e-93
2.1389e-93
5.20573e-93
3.5287e-93
3.56465e-93
2.66056e-93
5.90981e-93
6.32749e-93
3.87502e-93
4.18181e-93
2.51485e-93
2.46968e-93
9.22684e-93
1.06947e-92
5.3476e-93
6.1305e-93
4.84294e-93
-2.3622e-93
2.82457e-92
2.44472e-92
3.30854e-92
3.40699e-92
4.26876e-92
3.92779e-92
3.24522e-92
1.12712e-92
4.24406e-92
3.35998e-92
3.79128e-92
-9.03562e-93
7.25426e-92
5.57772e-92
7.39261e-92
7.05847e-92
5.00679e-92
4.5215e-92
4.48658e-92
4.45898e-92
3.86128e-92
4.14671e-92
2.56691e-92
1.72625e-92
5.11988e-92
5.63249e-92
3.11491e-92
3.21512e-92
1.92327e-92
2.00541e-92
3.21617e-92
3.24001e-92
4.74461e-92
5.44442e-92
2.63104e-92
2.98478e-92
1.61205e-92
1.7471e-92
1.41826e-92
1.59792e-92
1.10173e-92
1.26396e-92
1.02317e-92
1.12598e-92
6.47207e-93
6.45863e-93
3.79805e-93
3.73777e-93
2.16243e-93
1.89666e-93
1.32819e-93
1.20665e-93
2.27855e-93
2.46972e-93
1.40571e-93
1.51949e-93
2.38589e-93
2.4077e-93
3.53757e-93
4.02222e-93
2.15256e-93
2.44353e-93
1.35995e-93
1.14776e-93
2.15547e-93
2.06465e-93
2.0665e-93
2.17428e-93
1.94369e-93
1.77767e-93
1.46118e-93
8.06085e-94
5.50896e-93
6.03501e-93
3.52003e-93
3.80671e-93
3.6887e-93
3.8639e-93
3.47845e-93
3.88147e-93
2.20037e-93
2.45586e-93
1.36213e-93
1.33663e-93
3.46423e-93
3.95628e-93
2.05478e-93
2.33539e-93
1.30028e-93
1.19458e-93
1.41314e-93
1.42409e-93
1.15264e-93
1.23836e-93
7.92201e-94
8.59665e-94
4.97246e-94
5.16588e-94
6.25854e-94
7.26286e-94
3.82512e-94
4.2114e-94
3.21678e-94
3.61759e-94
2.08502e-94
2.3581e-94
1.20608e-94
1.35096e-94
6.75877e-95
7.52328e-95
5.62114e-95
6.48629e-95
5.00747e-95
5.47055e-95
2.69718e-95
2.91367e-95
1.72457e-95
1.8888e-95
9.60196e-96
1.11878e-95
-4.86002e-93
-6.03782e-93
-1.00815e-92
-1.25793e-92
-6.42807e-93
-8.01949e-93
-2.75385e-91
7.80883e-93
-7.03367e-87
-8.62844e-87
-1.05574e-83
-7.00059e-84
-8.19764e-81
-1.00736e-80
-5.46866e-81
-4.76874e-81
-1.47701e-79
6.97242e-79
-1.57128e-78
4.05487e-79
-1.79126e-75
6.05063e-37
-3.02257e-34
-4.61537e-32
2.05837e-30
5.56721e-28
1.8972e-26
2.75512e-25
1.98027e-24
8.07627e-24
2.23125e-23
4.06377e-23
5.79944e-23
7.47755e-23
8.95858e-23
1.03918e-22
1.21443e-22
1.47998e-22
1.70512e-22
1.73599e-22
1.54e-22
1.18318e-22
7.8783e-23
4.61261e-23
2.50649e-23
1.21365e-23
5.2573e-24
2.11177e-24
7.32611e-25
2.00052e-25
4.11408e-26
5.81913e-27
5.40762e-28
2.80975e-29
6.2259e-31
-2.05558e-32
-1.1032e-33
1.56657e-36
1.84934e-37
-3.87542e-39
2.25297e-41
-2.70894e-43
3.28935e-45
-4.13031e-47
-4.3761e-50
-4.66437e-54
7.256e-58
6.48885e-61
-3.59322e-65
-4.45283e-70
-5.23094e-05
-0.0011239
-0.000859577
0.000242116
-0.000537934
0.000829571
0.000398028
0.000493312
0.00055729
-0.000926253
-0.000337064
-0.00275473
-0.00225021
-0.00309306
-0.00428128
-0.00109646
-0.00557974
0.00499088
-0.00453057
0.0152427
-0.00160668
0.0298577
0.0043991
0.0473283
0.01235
0.0668849
0.0208665
0.0860714
0.0302182
0.106606
0.0378642
0.123882
0.0454759
0.139433
0.0485002
0.155636
0.0505195
0.17234
0.0524858
0.472213
0.595489
0.575269
0.574827
0.607688
0.566315
0.587345
0.571604
0.586777
0.574594
0.59125
0.573287
0.591944
0.569131
0.589157
0.568681
0.586544
0.570354
0.587482
0.57283
0.589728
0.572982
0.590975
0.571845
0.590403
0.570219
0.588863
0.570254
0.587734
0.570233
0.588154
0.572158
0.589297
0.570564
0.588902
0.581009
0.593932
0.521069
0.594936
-0.000355631
0.000289992
8.06387e-05
-0.00297416
7.9599e-05
0.0197351
0.0557792
0.0988243
0.136198
0.167243
0.000196655
-7.54969e-05
-0.000123111
-0.000109443
-9.56846e-05
-9.23622e-05
-0.000104248
-7.99722e-05
-7.85445e-05
0.000135144
-3.7467e-39
0
0
0
0
0
0
0
0
0
0
0
0
1.16563e-45
1.97902e-43
1.59866e-40
-1.67684e-39
8.52924e-37
-3.10297e-35
1.14162e-32
1.36692e-32
2.71693e-32
2.82958e-33
6.8399e-31
9.7409e-31
1.64641e-30
2.12135e-30
8.87374e-31
1.46875e-28
8.2227e-28
5.85599e-28
-4.3727e-27
-5.79683e-27
-3.57582e-26
-9.55984e-26
-3.11344e-25
-5.96251e-25
-6.47626e-25
-5.89547e-25
-4.00161e-25
-3.05666e-25
-1.24491e-25
-1.18248e-26
3.23167e-26
7.37029e-26
9.74793e-26
7.47758e-26
6.0159e-26
3.42169e-26
2.149e-26
1.33706e-26
7.77953e-27
4.85599e-27
2.11493e-27
1.19196e-27
3.35062e-28
2.00114e-28
7.80887e-29
1.48814e-29
-8.96983e-30
-1.07635e-29
-1.88367e-29
-9.87993e-30
-6.09958e-30
-4.10609e-30
-2.38231e-30
-1.54833e-30
-7.56239e-31
-4.12525e-31
-1.81664e-31
-9.27095e-32
-3.28008e-32
-1.49225e-32
-5.41798e-33
-1.92719e-33
-4.71699e-34
-1.8468e-34
2.1829e-34
1.30143e-34
8.26004e-35
5.17991e-35
2.61061e-35
1.97051e-35
9.84455e-36
4.50493e-36
2.24564e-36
1.00064e-36
4.94098e-37
1.92777e-37
8.09312e-38
3.7498e-38
1.45909e-38
5.92229e-39
2.22097e-39
8.81869e-40
3.86528e-40
1.36718e-40
5.52835e-41
1.33976e-41
0
5.42109e-41
0
9.01592e-37
-2.9748e-36
-2.23763e-75
-7.885e-36
4.28269e-33
-5.96109e-31
5.01065e-29
3.78963e-27
8.0038e-26
7.76882e-25
4.27147e-24
1.4005e-23
3.11828e-23
4.94518e-23
6.62534e-23
8.24667e-23
9.67039e-23
1.11325e-22
1.34123e-22
1.60401e-22
1.74574e-22
1.66364e-22
1.37561e-22
9.84491e-23
6.15631e-23
3.45167e-23
1.76783e-23
8.13071e-24
3.38581e-24
1.2818e-24
4.01177e-25
9.41868e-26
1.68892e-26
1.88361e-27
1.32011e-28
5.05975e-30
1.91228e-32
-6.34273e-33
-1.03388e-34
2.30319e-36
-1.55366e-38
-2.0783e-40
2.31563e-42
-2.04585e-44
-8.64681e-48
-7.7452e-49
3.22904e-52
-1.10731e-55
5.65892e-59
-5.09383e-63
-1.18952e-67
1.67256e-05
-1.81313e-72
0.0366196
0.229484
0.290553
-0.000412012
0.000717338
-0.00148545
-0.00321545
0.00740127
0.0352405
0.0763569
0.118782
0.152825
-0.000148944
0.178521
5.19612e-05
-0.00013332
-0.000109173
-8.82347e-05
-9.85387e-05
-9.99791e-05
-9.51262e-05
-4.85024e-05
-0.000102244
0.000102988
0
0
0
0
0
0
0
0
0
0
0
0
2.15732e-43
-1.59777e-40
4.89724e-38
-1.15277e-35
-2.28078e-34
1.30642e-34
-6.29465e-33
1.80698e-32
-1.66242e-34
-6.68741e-31
-4.70946e-31
-2.36072e-30
-1.06051e-30
-7.19279e-30
-4.49435e-28
-6.15782e-29
4.11924e-27
1.40401e-26
1.13835e-26
1.01937e-25
3.44333e-25
6.0262e-25
6.1828e-25
4.40944e-25
3.70874e-25
3.37195e-25
8.18447e-26
-1.2779e-26
5.28729e-26
2.25071e-26
-7.59627e-26
2.02799e-26
1.33497e-26
1.05557e-26
8.04725e-27
1.67409e-27
1.39942e-27
9.14111e-28
6.25975e-28
-9.52972e-29
1.20069e-28
-2.69085e-28
-8.48505e-29
-4.53014e-29
-5.28554e-29
-3.76611e-29
-2.76764e-30
-1.56541e-29
-7.96085e-30
-3.7699e-30
-2.98999e-30
-1.0179e-30
-9.10491e-31
-4.42869e-31
-1.87186e-31
-7.183e-32
-3.98274e-32
-3.3822e-33
-2.20286e-33
7.24489e-34
1.13858e-33
8.13055e-34
1.06305e-34
4.22051e-34
1.54323e-34
7.98164e-35
5.76188e-35
1.99862e-35
1.9585e-35
9.76758e-36
3.89673e-36
2.16764e-36
9.17569e-37
4.90147e-37
1.92318e-37
7.11813e-38
3.54609e-38
1.31795e-38
5.02116e-39
1.86501e-39
6.73407e-40
3.19513e-40
1.11014e-40
3.84223e-41
4.87288e-42
-6.38912e-42
-1.21059e-31
6.76893e-30
1.23142e-27
3.96038e-26
5.01733e-25
3.35108e-24
1.25584e-23
3.19061e-23
5.41449e-23
7.42362e-23
9.40613e-23
1.11612e-22
1.28091e-22
1.52449e-22
1.84879e-22
2.08538e-22
2.04863e-22
1.75055e-22
1.29319e-22
8.32895e-23
4.73938e-23
2.50699e-23
1.16932e-23
4.92094e-24
1.91987e-24
6.30603e-25
1.56331e-25
2.93723e-26
3.46671e-27
2.68164e-28
1.08446e-29
9.65501e-32
-1.282e-32
-2.57191e-34
4.76223e-36
-2.20047e-38
-5.56734e-40
5.95579e-42
-5.34e-44
9.24963e-47
-1.61769e-48
7.12954e-52
-2.61803e-55
1.21226e-58
-1.12712e-62
-2.77063e-67
-5.90487e-72
9.50499e-05
0.000654064
-0.000379036
-0.00448819
-0.00355617
0.00770399
0.0265631
0.0445372
0.0546999
0.0648867
-0.00025304
-0.00027172
-0.000259118
-0.000264748
-0.000253124
-0.00025371
-0.000260196
-0.000273561
-0.000280276
-3.47125e-05
0
0
0
0
0
0
0
0
0
0
0
7.55405e-43
1.37344e-41
2.47974e-38
4.4538e-36
-1.12691e-34
-1.25669e-32
-1.62663e-32
3.33407e-32
3.21616e-32
-3.99892e-31
-2.50431e-31
-1.17144e-30
-1.81613e-30
-5.10335e-30
-9.0309e-29
4.65416e-28
7.36234e-28
7.20237e-27
6.92655e-27
2.99099e-26
9.42527e-26
4.8023e-25
6.74451e-25
5.55518e-25
4.14404e-25
3.25419e-25
2.72819e-25
-5.64379e-26
1.12705e-25
2.94999e-26
-8.46092e-26
2.49499e-26
1.82914e-26
8.86369e-27
8.80878e-27
8.68197e-28
1.0595e-27
6.25191e-28
6.85308e-28
3.89719e-29
8.17841e-29
-2.2142e-28
-1.78439e-28
-4.7929e-29
-9.33397e-29
-4.46358e-29
-4.32184e-30
-2.17539e-29
-1.12648e-29
-3.6893e-30
-3.16705e-30
-1.63767e-30
-1.32087e-30
-6.61754e-31
-2.7869e-31
-1.23039e-31
-5.11192e-32
-9.94785e-33
-1.74108e-33
7.28856e-34
2.48079e-33
9.99129e-34
1.54904e-34
5.11498e-34
2.13026e-34
8.51157e-35
6.03915e-35
3.30919e-35
2.88425e-35
1.3026e-35
5.70789e-36
3.21677e-36
1.38973e-36
7.08359e-37
3.1851e-37
1.14487e-37
5.21096e-38
2.17261e-38
7.4483e-39
3.17794e-39
1.03449e-39
4.60222e-40
1.96164e-40
6.67472e-41
5.07845e-42
3.28806e-42
8.08788e-27
1.57526e-25
1.37737e-24
6.85089e-24
2.11589e-23
4.31814e-23
6.44887e-23
8.46354e-23
1.03576e-22
1.19601e-22
1.38716e-22
1.68297e-22
1.99227e-22
2.10243e-22
1.92854e-22
1.52992e-22
1.05745e-22
6.33353e-23
3.49389e-23
1.72348e-23
7.67192e-24
3.14333e-24
1.13706e-24
3.22509e-25
7.00402e-26
1.04488e-26
1.04666e-27
5.8814e-29
1.50969e-30
-3.33504e-32
-2.50336e-33
-4.19508e-36
4.88884e-37
-8.36898e-39
4.26046e-41
-5.58982e-43
7.46678e-45
-9.06436e-47
-9.6676e-50
-1.01562e-53
1.41916e-57
1.54464e-60
-7.78303e-65
-1.23365e-69
-9.43326e-75
-2.80304e-07
0.000573405
-0.00241075
-0.00515462
0.000443083
0.0162603
0.0367991
0.0505732
0.0616117
0.0642196
-0.000307499
-0.000250765
-0.000259345
-0.000251871
-0.000249839
-0.000257953
-0.000263676
-0.00025712
-0.00035577
0.00011135
0
-6.29992e-34
1.23574e-28
-1.14871e-30
9.49252e-33
-0.000486542
0
0
0
0
0
0
0
0
0
0
0
0
0
0
0
0
0
0
0
0
0
0
0
0
0
0
0
0
0
0
0
0
0
0
0
0
0
0
0
0
0
0
0
0
0
0
0
0
0
0
0
0
0
0
0
0
0
0
0
0
0
0
0
0
0
0
0
0
0
0
0
0
0
0
0
0
0
0
0
0
0
0
0
0
0
0
0
0
0
0
0
0
0
0
0
0
0
0
0
0
0
0
0
0
0
0
0
0
0
0
0
0
0
0
0
0
0
0
0
0
0
0
0
0
0
0
0
0
0
0
0
0
0
0
0
0
0
0
0
0
0
0
0
0
0
0
0
0
0
0
0
0
0
0
0
0
0
0
0
0
0
0
0
0
0
0
0
0
0
0
0
0
0
0
0
0
0
0
0
0
0
0
0
0
0
0
0
0
0
0
0
0
0
0
0
0
-7.40231e-34
-9.57453e-36
-2.57321e-35
-1.46373e-31
0
0
0
0
0
0
0
0
0
1.0819e-43
1.37223e-41
3.12229e-38
-2.94002e-35
2.05987e-33
4.74922e-32
1.35052e-30
2.07656e-30
1.76227e-30
-6.35475e-31
4.19335e-29
5.56964e-29
4.79178e-29
1.02459e-28
1.16064e-27
2.66789e-26
8.30758e-26
2.34295e-28
-3.48843e-25
-2.98761e-25
-2.08088e-24
-5.98711e-24
-1.05741e-23
-1.13002e-23
-9.39998e-24
-7.58817e-24
-1.86109e-24
4.45656e-24
8.07877e-24
6.55474e-24
5.88583e-24
4.60286e-24
2.91132e-24
1.87713e-24
1.0186e-24
6.22983e-25
3.00464e-25
1.5606e-25
5.62008e-26
-1.26451e-26
-7.14808e-27
-9.37097e-27
-9.86715e-27
-6.66573e-27
-5.42218e-27
-3.00379e-27
-1.9692e-27
-1.31056e-27
-6.97705e-28
-3.91608e-28
-2.01585e-28
-1.019e-28
-3.75759e-29
-1.95345e-29
-9.97453e-30
-2.01772e-31
1.53219e-31
2.67781e-31
4.68027e-31
3.77443e-31
2.02706e-31
1.05558e-31
5.98567e-32
3.59569e-32
1.73654e-32
9.6674e-33
4.71977e-33
2.13326e-33
9.15296e-34
3.89316e-34
1.76221e-34
6.19925e-35
2.55725e-35
1.00868e-35
4.6014e-36
2.02833e-36
4.48587e-37
2.10928e-37
5.32937e-38
7.05932e-41
2.5272e-39
-3.21206e-39
-9.50116e-40
-6.30451e-40
-1.12185e-39
-5.09867e-40
-5.37146e-39
9.78951e-27
0
-6.35106e-39
0
0
0
0
0
0
0
0
0
0
0
0
0
0
0
0
0
0
0
0
0
0
0
0
0
0
0
0
0
0
0
0
0
0
0
0
0
0
0
0
0
0
0
0
0
0
0
0
0
0
0
0
0
0
0
0
0
0
0
0
0
0
0
0
0
0
0
0
0
0
0
0
0
0
0
0
0
0
0
0
0
0
0
0
0
0
0
0
0
0
0
0
0
0
0
0
0
0
0
0
0
0
0
0
0
0
0
0
0
0
0
0
0
0
0
0
0
0
0
0
0
0
0
0
1.84346e-126
-1.21752e-127
6.438e-122
8.03775e-122
9.21163e-121
-4.08709e-120
2.09768e-120
-1.78281e-120
1.18247e-117
1.44279e-117
1.05978e-117
1.28237e-117
7.13669e-118
8.2827e-118
3.60862e-116
4.40238e-116
4.36117e-116
5.25339e-116
4.40439e-116
-1.72283e-116
5.09431e-115
5.8931e-115
7.25934e-115
8.49097e-115
1.38499e-113
1.48814e-113
1.04757e-113
4.33907e-114
6.52264e-113
4.76961e-113
5.29768e-113
-5.58287e-114
-2.41455e-111
-3.87099e-112
-4.97852e-108
-9.9308e-108
2.6609e-104
3.29849e-104
3.73396e-104
2.08668e-104
2.09647e-101
2.57369e-101
4.22991e-101
5.11377e-101
2.76639e-101
3.26292e-101
2.4387e-100
2.25542e-100
5.6482e-100
6.77912e-100
3.77769e-100
4.32938e-100
3.03211e-99
3.67916e-99
2.66536e-99
3.19537e-99
1.65218e-99
2.01831e-99
8.42933e-100
9.54038e-100
1.75704e-99
2.08331e-99
2.77148e-99
3.28747e-99
7.04997e-99
7.89629e-99
1.86916e-97
2.01671e-97
1.17977e-97
1.24247e-97
9.50656e-98
6.97451e-98
5.13415e-96
5.70029e-96
4.60496e-96
4.47507e-96
5.89729e-96
4.34286e-97
4.98828e-94
4.84909e-94
7.72365e-94
7.72743e-94
7.80786e-94
-3.08954e-94
6.39624e-94
-7.41899e-95
1.57006e-93
1.34012e-93
5.15793e-93
-1.35794e-93
7.93247e-92
8.75804e-92
5.15759e-92
5.19298e-92
3.32537e-92
3.23045e-92
2.25219e-92
2.08948e-92
1.62016e-91
1.78703e-91
1.23892e-91
1.36775e-91
7.93811e-92
8.82495e-92
1.67862e-91
1.81732e-91
2.02072e-91
2.26538e-91
1.29264e-91
1.40085e-91
2.37117e-91
1.63407e-91
4.12809e-91
4.50706e-91
2.85692e-91
1.95293e-91
1.10761e-90
1.29041e-90
6.9583e-91
7.89686e-91
4.40395e-91
4.99127e-91
2.80189e-91
3.03361e-91
2.48747e-91
2.70958e-91
3.36478e-91
3.79436e-91
2.14931e-91
2.13232e-91
2.77366e-90
2.91229e-90
3.7768e-90
4.05513e-90
2.51256e-90
2.60281e-90
4.53442e-90
3.12152e-90
8.66517e-90
9.24121e-90
6.3753e-90
3.46918e-90
1.72776e-89
1.93157e-89
1.12777e-89
1.22579e-89
7.37974e-90
8.14622e-90
5.71417e-90
6.14802e-90
3.51552e-90
3.58911e-90
2.09026e-90
2.10316e-90
4.07978e-90
4.52004e-90
2.41957e-90
2.38652e-90
2.16925e-90
2.43592e-90
1.29623e-90
1.41271e-90
2.5796e-90
2.87064e-90
1.70036e-90
1.90321e-90
9.41031e-91
1.06649e-90
9.03108e-91
1.02724e-90
6.33024e-91
7.09545e-91
4.03111e-91
3.42759e-91
5.27785e-91
5.61904e-91
5.43393e-91
6.29199e-91
3.11417e-91
3.56627e-91
2.3687e-91
2.77293e-91
1.4173e-91
1.61177e-91
1.27638e-91
1.48615e-91
7.7718e-92
8.97886e-92
1.79617e-91
1.99055e-91
1.26584e-91
1.38505e-91
7.87776e-92
8.61454e-92
1.59216e-91
1.61856e-91
1.93395e-91
2.0731e-91
1.242e-91
1.28701e-91
1.88725e-91
1.10886e-91
2.72932e-91
2.71129e-91
2.62988e-91
2.13646e-91
1.73146e-91
1.45489e-91
2.1386e-91
1.9038e-91
1.39082e-91
1.26828e-91
8.78591e-92
8.28532e-92
9.387e-92
9.2611e-92
1.13568e-91
1.26466e-91
6.82268e-92
7.56995e-92
1.16406e-91
1.25953e-91
9.82524e-92
1.09109e-91
5.78772e-92
6.52768e-92
3.93046e-92
4.17165e-92
3.08222e-92
3.5371e-92
1.80046e-92
1.97537e-92
1.73038e-92
1.89025e-92
1.32175e-92
1.4634e-92
7.80452e-93
8.81172e-93
4.77518e-93
5.53591e-93
2.91501e-93
3.32332e-93
1.73827e-93
1.79561e-93
2.37458e-93
2.68911e-93
1.32964e-93
1.48801e-93
8.45579e-94
9.17653e-94
4.11488e-94
5.4041e-94
-7.12463e-91
-8.85732e-91
-4.58535e-91
-5.54066e-91
-3.27523e-91
-3.56085e-91
-1.29049e-87
-1.60461e-87
-7.65636e-85
-9.48821e-85
-3.58653e-82
2.26281e-83
-5.8451e-79
-7.12672e-79
-8.59449e-78
-8.50818e-78
-1.45059e-75
-1.77197e-75
-9.88789e-76
-1.09419e-74
-1.21957e-75
1.5207e-28
0.000526809
6.25239e-05
0.000316914
8.53275e-30
2.56421e-29
1.09396e-32
-1.57344e-33
2.40123e-32
1.49677e-27
3.6437e-28
3.3567e-27
-1.33471e-30
-2.54406e-30
1.89308e-25
1.65302e-24
8.20923e-24
2.53604e-23
5.17554e-23
7.72493e-23
1.01369e-22
1.24346e-22
1.43048e-22
1.663e-22
2.01411e-22
2.38502e-22
2.51923e-22
2.30552e-22
1.82772e-22
1.26474e-22
7.58503e-23
4.18229e-23
2.06134e-23
9.16886e-24
3.75186e-24
1.35601e-24
3.86023e-25
8.37922e-26
1.25345e-26
1.25918e-27
7.0965e-29
1.84271e-30
-3.88474e-32
-3.01113e-33
-6.31651e-36
5.94335e-37
-9.80014e-39
4.86317e-41
-6.47156e-43
8.70232e-45
-1.06388e-46
-1.12782e-49
-1.18867e-53
1.61262e-57
1.83066e-60
-8.98808e-65
-1.46747e-69
-6.97063e-72
-1.89652e-71
-3.33247e-74
3.36774e-05
-2.53293e-05
0.144187
0.000637227
0.000389922
0.000661492
-0.000273049
0.000342111
-0.00106986
-9.34581e-05
-0.00146274
-0.000458433
-0.00105792
-0.000545196
0.000147296
-9.39671e-06
0.00207683
0.000424781
0.00375761
0.00124053
0.00526968
0.00108191
0.00646754
0.000802672
0.00690226
0.000359191
0.00631992
-0.0005983
0.0049771
-0.00206773
0.0032975
-0.00391634
0.000197402
-0.00534639
-0.00242247
-0.00731125
-0.00526941
-0.00876145
0.276342
0.640617
0.618654
0.648407
0.62066
0.637785
0.623994
0.642
0.624885
0.643771
0.621561
0.642316
0.619239
0.639336
0.620182
0.638807
0.622422
0.640383
0.623826
0.642094
0.622988
0.642702
0.621826
0.641741
0.621043
0.640978
0.621143
0.640871
0.621661
0.640466
0.623155
0.641687
0.618767
0.637444
0.669387
0.497753
0.680742
0
-0.00054767
-0.00141498
0.000647725
0.00446101
0.00699607
0.00655694
0.00151476
-0.00229524
0.00152901
0.000326552
0.000471611
0.000146637
-8.16384e-05
9.40457e-05
-1.23342e-06
-1.81072e-05
-1.6831e-05
-4.41105e-07
-1.04364e-05
-1.84494e-05
-3.72148e-05
-0.000117225
8.62023e-05
0
0
0
-0.000283692
0.000280564
-0.00010857
0.644759
0.687137
0.375122
-0.000115655
-8.88241e-05
-0.00889868
-0.00910108
-2.76796e-05
6.45035e-05
-7.76352e-39
0
0
1.71088e-36
-3.75911e-31
0
1.04191e-36
0
0
0
0
0
0
0
0
0
5.94048e-41
-2.05939e-38
2.4893e-36
-8.74743e-34
1.61808e-32
1.44416e-30
3.01767e-30
1.49709e-30
-4.03623e-32
2.80733e-29
5.06655e-29
6.83512e-29
4.66967e-29
4.28385e-28
-2.54218e-27
5.03781e-26
1.1358e-25
2.81837e-26
-1.94193e-25
-7.51064e-25
-2.55654e-24
-6.99034e-24
-1.00138e-23
-1.23067e-23
-7.222e-24
-2.43322e-24
1.23744e-24
7.89854e-24
7.43295e-24
6.34908e-24
5.60388e-24
3.69191e-24
2.29765e-24
1.34558e-24
8.00927e-25
3.89813e-25
1.91323e-25
7.5288e-26
9.42476e-27
-9.11202e-27
-1.22576e-26
-1.36545e-26
-7.3304e-27
-7.1135e-27
-4.08708e-27
-2.5542e-27
-1.73804e-27
-9.65252e-28
-5.15191e-28
-2.77563e-28
-1.42058e-28
-6.04779e-29
-2.77856e-29
-1.41018e-29
-3.36305e-30
6.89696e-32
1.34218e-31
7.42302e-31
3.40173e-31
2.68437e-31
1.49213e-31
8.37245e-32
5.14866e-32
2.46391e-32
1.3739e-32
6.7788e-33
3.16318e-33
1.40274e-33
6.01625e-34
2.57132e-34
1.03364e-34
4.02647e-35
1.48159e-35
6.87782e-36
2.97723e-36
9.25313e-37
3.11899e-37
7.72774e-38
-5.97974e-39
3.38792e-39
-4.6158e-39
-2.03742e-39
-1.11076e-39
-9.66612e-40
-8.07057e-40
-3.09054e-40
0
0
0
0
-0.0276697
4.78303e-26
6.01527e-25
4.01264e-24
1.50787e-23
3.82307e-23
6.49119e-23
8.89177e-23
1.12746e-22
1.33891e-22
1.53325e-22
1.8267e-22
2.21326e-22
2.49858e-22
2.45008e-22
2.09336e-22
1.54395e-22
9.97719e-23
5.67679e-23
2.99988e-23
1.39639e-23
5.87853e-24
2.29424e-24
7.53305e-25
1.86941e-25
3.51042e-26
4.16387e-27
3.23078e-28
1.31139e-29
1.21725e-31
-1.52841e-32
-3.15115e-34
5.54632e-36
-2.42119e-38
-6.73464e-40
6.97766e-42
-6.32879e-44
1.13624e-46
-1.90366e-48
8.31886e-52
-3.0887e-55
1.41383e-58
-1.30905e-62
-3.21883e-67
0
7.90618e-06
0.0152417
0.0907017
8.82669e-06
0
-0.00118345
-0.000884443
0.00269626
0.00636732
0.00734639
0.00433272
-0.00138969
-0.0140027
-0.00453769
8.88484e-05
-2.28485e-05
-8.00557e-06
-1.05745e-05
8.76116e-05
9.51768e-05
-1.41707e-06
-8.09768e-06
-1.4442e-05
-3.18277e-05
7.37783e-06
-3.75881e-05
-9.35332e-05
0
0
0
-0.000356863
0.000127762
9.27851e-05
9.22058e-05
8.99342e-05
-0.0101518
-0.00579384
-0.00184028
0.000709639
0.000956221
-0.000389666
-3.46541e-69
-1.9168e-64
4.46298e-60
2.95595e-57
-2.59117e-53
-2.53832e-49
-2.31407e-46
1.93682e-44
-1.24992e-42
8.24738e-41
-2.07287e-38
1.49076e-36
-3.32923e-35
-6.46218e-33
-5.58666e-32
4.28746e-30
1.42514e-28
2.37035e-27
2.2622e-26
1.38854e-25
6.21087e-25
2.03186e-24
5.40735e-24
1.31917e-23
2.91791e-23
5.72777e-23
1.02818e-22
1.6626e-22
2.34378e-22
2.82977e-22
2.98924e-22
2.75207e-22
2.27257e-22
1.89287e-22
1.64617e-22
1.4073e-22
1.13294e-22
8.50625e-23
5.34029e-23
2.29925e-23
-7.02993e-39
-4.58014e-40
-1.61292e-39
-1.59988e-39
-3.17364e-39
-8.57984e-39
-9.78594e-39
-3.28077e-38
-1.76127e-38
6.4488e-38
4.62715e-38
1.21027e-36
2.53269e-36
4.26235e-36
1.42442e-35
3.38397e-35
1.25058e-34
2.68161e-34
6.28365e-34
1.70402e-33
3.73846e-33
7.10847e-33
1.21984e-32
2.7922e-32
5.06089e-32
8.62534e-32
1.46557e-31
4.6268e-31
6.85216e-31
7.71278e-31
1.73225e-30
2.8059e-30
-2.06315e-30
-2.58232e-30
-3.5871e-31
-2.89862e-29
-7.61308e-29
-1.39139e-28
-2.31497e-28
-5.06681e-28
-9.49964e-28
-1.41631e-27
-2.31491e-27
-5.51125e-27
-1.00678e-26
-1.53175e-26
-2.55051e-26
-4.843e-26
-4.06407e-26
-6.67939e-26
-6.39434e-26
-4.89918e-26
-1.95931e-25
-2.9723e-25
-1.29969e-25
-5.83142e-25
-1.69068e-24
-1.65738e-24
-6.21511e-24
-1.02998e-24
5.06187e-25
0
0
6.50741e-24
6.18702e-24
1.2843e-23
1.5212e-23
8.96791e-24
4.28631e-24
8.78193e-25
1.15096e-24
2.71122e-25
-1.33913e-25
-4.89154e-26
-3.4885e-27
-3.05799e-28
1.10303e-28
-5.34716e-29
-7.40424e-29
6.25953e-31
1.14375e-30
1.37365e-30
-3.24161e-31
-1.75875e-31
-1.05009e-32
9.06947e-35
-1.19686e-37
-4.94417e-42
2.18495e-05
3.96134e-05
9.04541e-05
9.24756e-05
8.92211e-05
8.89872e-05
8.7073e-05
-0.0429269
-0.0114573
-0.00794678
-0.00300281
-0.000314091
0.00116212
0.000112926
-7.2112e-67
-2.92175e-62
3.06478e-58
-7.14038e-55
1.86554e-51
-3.88311e-48
5.3927e-46
-1.65472e-43
1.71055e-41
-1.74136e-39
-2.25129e-38
1.07416e-35
-7.45274e-34
-2.96862e-32
3.80236e-31
2.76568e-29
6.3398e-28
7.53849e-27
5.97825e-26
3.05359e-25
1.15836e-24
3.41645e-24
8.58993e-24
1.98018e-23
4.14341e-23
7.74859e-23
1.33636e-22
2.00361e-22
2.62551e-22
2.95161e-22
2.90622e-22
2.51783e-22
2.05519e-22
1.75873e-22
1.5317e-22
1.27444e-22
9.85567e-23
6.94958e-23
3.69993e-23
0
2.06055e-26
-3.30389e-40
-1.07603e-39
-1.59905e-39
-2.57448e-39
-5.54884e-39
-1.33942e-38
-1.66161e-38
-5.87738e-38
-2.41446e-38
5.68772e-38
3.49181e-37
1.70103e-36
3.12985e-36
6.93067e-36
2.17715e-35
6.10046e-35
1.814e-34
4.09008e-34
9.85273e-34
2.51393e-33
5.25816e-33
1.1104e-32
1.79271e-32
4.10295e-32
7.28375e-32
1.15372e-31
2.71118e-31
3.98318e-31
1.06977e-30
1.08393e-30
2.16575e-30
3.79321e-32
-1.77276e-30
-4.14027e-31
-1.56299e-29
-5.02997e-29
-1.09221e-28
-1.6623e-28
-3.33844e-28
-7.57339e-28
-1.36413e-27
-2.02609e-27
-6.02448e-27
-5.45032e-27
-1.35038e-26
-2.11751e-26
-3.39245e-26
-2.44982e-26
-4.19374e-26
-1.02898e-25
-9.57154e-26
-4.80814e-26
-1.93145e-25
-2.71517e-25
-3.54963e-25
-8.70193e-25
-2.01666e-24
-3.19578e-24
-8.43042e-25
-5.59927e-24
1.53149e-24
8.25022e-24
8.63081e-24
1.09152e-23
1.0793e-23
5.5912e-24
2.37115e-24
2.44446e-26
4.41336e-25
1.18401e-25
-1.23984e-25
-8.5607e-27
-8.05267e-28
-1.32772e-29
-3.11833e-29
-7.01786e-29
-2.22213e-29
4.06684e-30
9.42822e-31
2.49453e-30
0
-1.12797e-30
-6.40643e-33
-7.08852e-34
-8.27451e-36
-2.61082e-38
7.0733e-41
0
0
0
0
0
0
0
0
0
6.625e-24
1.07673e-24
9.48222e-26
3.54669e-25
2.91683e-24
1.2896e-23
-0.000605497
-0.000514757
0.000370516
8.96044e-05
8.74458e-05
8.71845e-05
8.68938e-05
0
0
0
0
0
0
0
0
0
0
0
0
0
0
0
0
0
0
0
0
0
0
0
0
0
0
0
0
0
0
0
0
0
0
0
0
0
0
0
0
0
0
0
0
0
0
0
0
0
0
0
0
0
0
0
0
0
0
0
0
0
0
0
0
0
0
0
0
0
0
0
0
0
0
0
0
0
0
0
0
0
0
0
0
0
0
0
0
0
0
0
0
0
0
0
0
0
0
0
0
0
0
0
0
0
0
0
0
0
0
0
0
0
0
0
0
0
0
0
0
0
0
0
0
0
0
0
0
0
0
0
0
0
0
0
0
0
0
0
0
0
0
0
0
0
0
0
0
0
0
0
0
0
0
0
0
0
0
0
0
0
0
0
0
0
0
0
0
0
0
0
0
0
0
0
0
0
0
0
0
0
0
0
0
0
0
0
0
0
0
-3.12272e-35
-4.55157e-31
7.98326e-24
-0.000131797
0
0
0
0
0
0
0
0
0
2.45888e-28
1.90875e-22
0
0
0
0
0
1.69351e-05
3.88147e-39
-6.37312e-37
2.69868e-33
-3.57638e-32
3.15557e-30
2.38535e-29
-5.07926e-29
2.16579e-28
0
0
1.22779e-28
8.02984e-29
-1.13612e-28
1.40498e-27
3.31341e-27
2.77795e-27
-3.067e-27
3.34546e-26
-2.68624e-25
4.7837e-24
2.56091e-24
-1.72922e-24
1.11372e-23
-4.58617e-23
-1.20177e-22
-1.12067e-22
4.03558e-23
8.07934e-23
1.15373e-22
-2.54584e-22
0
0
2.59915e-22
2.83029e-22
2.39801e-22
1.66179e-22
1.08611e-22
4.92299e-23
2.12402e-23
9.7596e-24
6.64115e-26
-4.99972e-25
-3.53333e-24
-2.31894e-24
-2.73053e-24
-2.32716e-24
-1.23224e-24
-7.75533e-25
-4.54841e-25
-2.63108e-25
-1.40767e-25
-7.04207e-26
-3.96015e-26
-1.50689e-26
-5.37411e-27
-1.81327e-27
-8.13531e-28
2.03878e-28
7.88577e-28
4.6676e-28
2.8019e-28
1.92493e-28
1.00293e-28
5.63878e-29
2.60351e-29
1.28172e-29
5.78891e-30
2.67045e-30
1.30168e-30
4.9326e-31
1.86466e-31
7.66274e-32
3.50304e-32
1.37017e-32
1.92399e-33
2.16875e-34
2.07106e-34
-4.33134e-34
-1.95194e-34
-1.86453e-34
-9.14896e-35
-3.46657e-35
-1.86058e-35
-8.59451e-36
-3.567e-36
-1.49505e-36
-6.05553e-37
-3.13858e-37
-1.21866e-37
-5.03095e-38
-2.69927e-38
-1.60135e-38
0
0
0
0
0
0
0
0
0
0
0
0
0
0
0
0
0
0
0
0
0
0
0
0
0
0
0
0
0
0
0
0
0
0
0
0
0
0
0
0
0
0
0
0
0
0
0
0
0
0
0
0
0
0
0
0
0
0
0
0
0
0
0
0
0
0
0
0
0
0
0
0
0
0
0
0
0
0
0
0
0
0
0
0
0
0
0
0
0
0
0
0
0
0
0
0
0
0
0
0
0
0
0
0
0
0
0
0
0
0
0
0
0
0
0
0
0
0
0
0
0
0
0
0
-3.11379e-125
-5.22249e-125
1.07656e-119
-1.75704e-120
1.28346e-116
1.5595e-116
8.57034e-117
8.49601e-117
8.72809e-116
1.054e-115
1.03725e-115
-1.37659e-115
9.93321e-116
-7.32272e-116
4.25557e-114
5.12259e-114
4.04756e-114
-1.31508e-114
9.61829e-113
1.11314e-112
6.4088e-113
7.12422e-113
4.43846e-113
4.0786e-113
1.47221e-111
4.84565e-112
5.68505e-111
-7.81996e-113
2.10394e-110
1.68284e-110
4.49987e-110
-1.22126e-109
8.88099e-111
2.77913e-109
-6.46714e-106
-1.27302e-105
2.33548e-102
-9.74402e-102
1.14366e-101
-3.8685e-101
1.95323e-99
2.37701e-99
2.98572e-99
-5.14947e-99
3.88984e-99
-5.82892e-99
1.00817e-97
1.19052e-97
6.74686e-98
6.64139e-98
4.6111e-98
4.45202e-98
2.28968e-97
2.75575e-97
1.47182e-97
1.72154e-97
8.92803e-98
1.08063e-97
1.45503e-97
1.53387e-97
1.87186e-97
2.11565e-97
3.13153e-97
-7.96013e-97
5.12533e-97
-8.2737e-97
2.62404e-95
3.12725e-95
2.14861e-95
-2.77002e-96
2.05296e-95
-1.24264e-95
3.85148e-94
3.94995e-94
6.84552e-94
-1.55538e-93
2.28749e-93
-7.40395e-93
6.51822e-92
6.39954e-92
8.36549e-92
-1.12359e-91
4.7631e-91
3.33113e-91
3.41114e-91
2.25798e-91
2.53848e-91
1.63411e-91
2.79416e-90
2.56046e-90
4.94324e-90
4.96777e-90
5.0533e-90
5.22639e-90
3.74483e-90
1.16662e-90
2.79365e-90
1.11459e-90
9.29667e-90
9.98131e-90
6.67722e-90
2.82607e-90
4.68088e-90
2.39379e-90
1.28001e-89
1.328e-89
1.01451e-89
2.11189e-90
9.29964e-90
-4.96616e-90
4.35311e-89
4.36648e-89
2.83763e-89
2.11049e-89
6.05019e-89
6.87325e-89
3.78741e-89
3.96172e-89
3.39277e-89
3.70566e-89
2.27734e-89
1.80532e-89
2.33566e-89
2.18823e-89
1.5289e-89
1.33351e-89
1.53493e-89
-1.58673e-89
1.65332e-89
-2.00501e-89
2.20144e-88
2.4081e-88
2.28858e-88
-1.52758e-88
1.96647e-88
-2.71204e-89
7.91653e-88
8.10319e-88
5.44361e-88
2.6116e-88
1.39887e-87
1.59029e-87
8.94763e-88
9.64572e-88
5.8818e-88
5.47089e-88
4.07351e-88
3.14745e-88
3.89694e-88
3.50794e-88
2.44054e-88
2.05002e-88
1.57403e-88
9.28591e-89
1.84391e-88
1.69315e-88
1.87524e-88
2.01658e-88
1.17018e-88
8.61678e-89
7.34361e-89
5.75928e-89
1.19317e-88
1.29372e-88
7.05834e-89
7.1173e-89
3.89815e-89
3.96217e-89
4.34803e-89
4.85818e-89
2.7296e-89
2.63443e-89
5.31962e-89
6.07581e-89
3.28542e-89
3.61298e-89
2.013e-89
2.12249e-89
1.14936e-89
1.23674e-89
7.15227e-90
7.21339e-90
5.6828e-90
6.1004e-90
3.95664e-90
1.71566e-90
2.81947e-90
1.40985e-90
8.09795e-90
8.67628e-90