/*--------------------------------*- C++ -*----------------------------------*\
  =========                 |
  \\      /  F ield         | OpenFOAM: The Open Source CFD Toolbox
   \\    /   O peration     | Website:  https://openfoam.org
    \\  /    A nd           | Version:  7
     \\/     M anipulation  |
\*---------------------------------------------------------------------------*/
FoamFile
{
    version     2.0;
    format      ascii;
    class       volScalarField;
    location    "0.94";
    object      T;
}
// * * * * * * * * * * * * * * * * * * * * * * * * * * * * * * * * * * * * * //

dimensions      [0 0 0 1 0 0 0];

internalField   nonuniform List<scalar> 
46572
(
-2.80269e-46
-1.00458e-44
1.47679e-45
-1.28544e-42
-9.04589e-41
-1.69623e-40
-9.47405e-40
4.15648e-39
-3.51313e-39
4.3825e-38
-6.92829e-39
1.19803e-37
-7.06436e-39
1.14561e-37
-7.42242e-39
-1.24752e-37
-3.52208e-38
-5.06051e-37
-1.34477e-37
-5.47807e-37
1.49126e-37
2.07625e-36
4.78572e-36
1.40631e-35
3.9466e-35
4.39215e-35
1.99834e-34
2.06439e-36
7.95413e-34
-5.45467e-34
2.60742e-33
-3.19394e-33
6.79752e-33
-1.24827e-32
1.6854e-32
-3.78116e-32
3.83755e-32
-1.21421e-31
6.53418e-32
-2.46519e-31
8.74154e-32
-3.89739e-31
1.00684e-31
-4.8497e-31
1.01795e-31
-5.1258e-31
9.95001e-32
-4.95228e-31
9.80998e-32
-4.70112e-31
1.01154e-31
-4.73899e-31
1.0932e-31
-5.00031e-31
1.1915e-31
-5.59368e-31
1.25223e-31
-6.06493e-31
1.19827e-31
-6.07154e-31
1.09693e-31
-5.58529e-31
9.97587e-32
-4.90273e-31
9.34629e-32
-4.66648e-31
8.90152e-32
-4.66211e-31
8.12816e-32
-4.25593e-31
7.03399e-32
-3.73939e-31
5.74079e-32
-3.29958e-31
4.05802e-32
-2.29928e-31
2.5478e-32
-1.47103e-31
1.38003e-32
-8.398e-32
5.61807e-33
-3.40078e-32
1.8249e-33
-1.0164e-32
4.05644e-34
-1.24507e-33
6.52849e-35
8.17965e-35
1.00506e-35
5.0107e-35
1.68231e-37
1.81491e-35
-2.75019e-37
3.32421e-36
-2.76999e-38
-1.6681e-37
0
-5.71879e-38
0
0
0
0
0
0
0
0
0
0
0
0
0
0
0
0
0
0
0
0
0
0
0
0
0
0
0
0
0
0
0
0
0
0
0
0
0
0
0
0
0
0
0
0
0
0
0
0
0
0
0
0
0
0
0
0
0
0
0
0
0
0
0
0
0
0
0
0
0
0
0
0
0
0
0
0
0
0
0
0
0
0
0
0
0
0
0
0
0
0
0
0
0
0
0
0
0
0
0
0
0
0
0
0
0
0
0
0
0
0
0
0
0
0
0
0
0
0
0
0
0
0
0
0
0
0
0
0
0
0
0
0
0
0
0
0
0
0
0
0
0
0
0
-8.05747e-139
-1.00718e-138
-4.02028e-138
-4.674e-138
-1.58651e-134
-2.48903e-134
-1.73907e-130
3.84575e-131
1.96453e-123
2.46515e-123
-8.62935e-123
-1.36274e-122
-3.6687e-116
1.17379e-119
5.40616e-113
6.96314e-113
3.05538e-112
3.90474e-112
7.08686e-111
-3.21852e-110
8.67586e-111
-1.51429e-110
1.01411e-110
-8.81505e-111
4.10334e-108
-3.18692e-109
-3.91889e-106
-7.66907e-106
-1.26701e-105
-1.94923e-105
-1.12728e-105
-1.95795e-105
3.87537e-104
-1.25553e-103
-1.20613e-102
-2.23748e-102
-1.7344e-101
-1.12561e-101
-2.59381e-99
-2.5979e-99
-4.47159e-98
1.83357e-97
-1.03654e-96
1.76916e-96
-2.79138e-95
5.68236e-95
-1.01405e-93
-6.65587e-94
-1.0899e-93
-9.64502e-94
-8.8462e-94
-1.30606e-94
-3.10993e-93
3.0413e-93
-1.67306e-91
-1.67671e-91
-1.07909e-91
-1.02626e-91
-2.01007e-91
3.99368e-91
-7.81034e-91
-1.57584e-91
-9.76847e-91
-6.55538e-91
-8.68535e-91
-4.63373e-91
-8.66447e-91
2.25701e-91
-3.7281e-90
-3.49155e-90
-6.83753e-90
-5.39013e-90
-4.82027e-90
-3.7626e-90
-4.39247e-90
-2.54857e-90
-5.98933e-89
-4.74295e-89
-4.38621e-89
-1.98126e-89
-3.50382e-89
-5.51049e-90
-2.99992e-89
6.68121e-90
-2.48748e-89
5.49949e-90
-1.15752e-88
1.0069e-88
-1.30008e-88
1.04099e-88
-1.6272e-87
-4.09717e-88
-3.43529e-87
-3.09041e-87
-2.30383e-87
-1.97877e-87
-2.06907e-87
3.19491e-88
-4.147e-87
-1.63127e-87
-6.25652e-87
-1.52232e-87
-1.14179e-86
-6.19038e-89
-1.27351e-86
6.80863e-87
-5.75518e-86
-4.72111e-86
-3.90768e-86
-3.11187e-86
-2.96068e-86
-9.47721e-87
-3.86528e-86
-2.87063e-86
-2.75386e-86
-1.91305e-86
-2.32718e-86
-1.6009e-87
-9.41025e-86
-8.49029e-86
-6.28299e-86
-5.43601e-86
-5.05803e-86
-1.01072e-86
-7.05372e-86
-2.96484e-86
-7.14069e-86
-4.85521e-86
-5.66835e-86
-3.35485e-86
-4.79281e-86
-1.07264e-86
-9.66849e-86
-9.00054e-86
-7.96962e-86
-9.7694e-87
-8.26927e-86
-3.93819e-86
-5.92627e-86
-2.76434e-86
-4.27793e-86
-2.11489e-86
-3.39364e-86
-5.69538e-87
-4.41353e-86
-1.83103e-86
-8.99286e-86
-7.3815e-86
-1.22393e-85
-9.09438e-86
-8.70456e-86
-6.21912e-86
-6.17269e-86
-3.98651e-86
-8.50035e-86
-3.16542e-86
-1.10678e-85
-8.67396e-86
-7.52808e-86
-5.43389e-86
-5.76202e-86
-2.10329e-86
-5.73013e-86
-2.50036e-86
-4.45241e-86
-1.66647e-86
-3.36357e-86
-1.3253e-86
-2.74505e-86
-8.10789e-88
-3.81242e-86
-1.92675e-86
-5.63486e-86
-9.83504e-87
-4.28089e-86
-1.08331e-86
-3.19296e-86
-1.08823e-86
-2.35319e-86
-1.00803e-86
-3.41752e-86
-1.22091e-86
-4.42299e-86
-3.85612e-86
-2.8377e-86
-2.86762e-86
-1.87232e-86
-1.81347e-86
-1.47883e-86
-1.93721e-86
-1.22952e-86
-1.44712e-86
-9.72324e-87
-5.15211e-87
-1.45387e-86
1.58545e-86
-1.38519e-86
8.0125e-87
-2.60422e-86
3.18271e-86
-3.37036e-86
3.83487e-86
-3.50131e-86
1.78286e-86
-3.77673e-86
3.44201e-86
-4.45469e-86
7.37558e-86
-1.24386e-85
1.36714e-85
-1.39427e-85
2.5209e-85
-2.56375e-85
4.75537e-85
-4.22247e-85
6.10325e-85
-5.10781e-85
5.47553e-85
-5.54696e-85
5.89491e-85
-6.44705e-85
6.8312e-85
-7.0797e-85
6.88287e-85
-8.00414e-85
7.0912e-85
-8.05768e-85
5.7701e-85
-7.4741e-85
4.08818e-85
-6.98074e-85
3.98273e-85
-6.4308e-85
3.65031e-85
-6.07671e-85
3.88027e-85
-7.20028e-85
7.41302e-85
-8.34154e-85
5.13426e-85
-8.82336e-85
6.40896e-85
-8.34433e-85
5.87687e-85
-9.98036e-85
7.07348e-85
-1.06934e-84
4.30763e-85
-9.75502e-85
6.49005e-85
-1.04219e-84
7.50092e-85
-9.84872e-85
6.11034e-85
-1.01627e-84
8.7673e-85
-1.16899e-84
1.19218e-84
-1.36932e-84
1.34451e-84
-1.34934e-84
1.26097e-84
-1.38275e-84
1.35842e-84
-1.48886e-84
1.46007e-84
-1.51157e-84
1.17925e-84
-1.3821e-84
8.67327e-85
-1.34255e-84
9.15229e-85
-1.24901e-84
9.537e-85
-1.20657e-84
8.84707e-85
-1.0465e-84
3.81772e-85
-7.95761e-85
3.06841e-85
-5.95138e-85
3.43509e-85
-4.46669e-85
3.40573e-86
-1.9817e-85
-2.29547e-85
1.88298e-85
6.93092e-86
2.10268e-85
-1.99038e-86
2.82017e-85
-8.58177e-86
5.4942e-85
-7.74844e-86
5.17052e-85
-1.17491e-85
5.09991e-85
-2.30708e-85
7.64653e-85
2.15286e-86
5.99434e-85
-1.39633e-85
6.00979e-85
-3.10376e-85
5.99232e-85
-3.07383e-85
5.62148e-85
-2.5209e-85
4.97713e-85
-2.2158e-85
4.75276e-85
-1.08797e-85
4.13965e-85
-7.15124e-87
3.37266e-85
-4.76774e-86
-2.6178e-84
3.44165e-85
1.58547e-83
6.91829e-83
-4.14441e-82
5.37457e-82
-2.27838e-81
-7.63889e-82
6.74508e-80
9.7487e-80
3.5268e-79
-8.8889e-79
-2.20213e-77
4.01265e-78
-1.90469e-75
-2.67753e-76
9.02891e-74
2.18726e-74
-2.26327e-73
-1.34742e-72
-6.87333e-72
-6.88095e-72
3.68384e-71
-4.5299e-71
-2.98512e-69
-1.28337e-69
1.32059e-68
-1.51973e-68
-6.98774e-67
1.93285e-67
-8.34907e-66
-7.12083e-66
-5.1056e-64
-3.41211e-64
-2.80872e-63
3.84835e-64
-5.08624e-62
7.28059e-63
6.77575e-61
-0.000453017
-0.000145359
-1.0722e-05
-3.23638e-07
1.81896e-08
1.51023e-09
2.78972e-11
-4.98143e-13
-2.34224e-14
-2.84299e-16
-7.29447e-19
-1.65175e-20
3.67281e-22
1.15723e-23
-1.74749e-25
-2.23161e-27
4.40639e-30
6.48189e-32
3.90358e-35
-1.45298e-36
-1.11951e-39
8.30297e-41
-5.29523e-43
1.073e-45
8.42512e-48
-1.06094e-49
1.05523e-51
-1.04304e-53
8.16415e-56
-4.43566e-58
-0.000460045
-1.16109e-12
8.89741e-12
5.89434e-11
5.35888e-11
-8.55488e-11
2.12455e-10
1.18736e-09
5.45578e-10
-7.16453e-09
-1.49587e-08
6.5274e-09
7.95876e-08
5.24245e-08
-5.92507e-07
-2.66192e-06
-6.21205e-06
-7.23772e-06
9.16776e-06
7.77975e-05
0.000264085
0.00069246
0.00153835
0.00302556
0.00550392
0.00926663
0.0147146
0.0220707
0.0317883
0.043908
0.0579193
0.0734454
0.0919206
0.110649
0.129341
0.146524
0.161758
0.175948
0.18501
0.188159
0.187778
0.180849
0.168656
0.153094
0.130691
0.109491
0.0849196
0.0602477
0.0352448
0.0111279
-0.0100459
-0.028454
-0.0437484
-0.057579
-0.0672381
-0.0714908
-0.0756772
-0.0757388
-0.0733996
-0.0696741
-0.0623211
-0.0581573
-0.0522796
-0.0453914
-0.0394257
-0.0339568
-0.0291598
-0.0246189
-0.0195763
-0.0162891
-0.0130613
-0.010226
-0.00802682
-0.00633079
-0.00483991
-0.00366266
-0.00270176
-0.00207262
-0.00154166
-0.00117469
-0.000683505
-0.000461548
5.43064e-14
4.34733e-13
1.53155e-13
8.72427e-13
2.62509e-13
1.24487e-13
4.79972e-13
-2.17037e-12
2.46003e-12
5.01758e-12
-2.73298e-13
-9.40423e-12
-4.12975e-13
2.32419e-13
-2.20254e-13
1.60422e-13
3.75117e-14
-3.22678e-13
3.32764e-13
-1.5867e-13
2.94563e-14
-7.33029e-14
5.72667e-13
2.7232e-13
8.30238e-13
-5.73353e-13
-6.75692e-13
1.06501e-12
4.71585e-13
-1.45523e-13
7.52631e-13
-8.21168e-13
-6.32197e-13
-7.54236e-13
-7.00192e-13
-4.26665e-13
-7.43738e-13
5.42688e-13
2.80228e-13
-1.14029e-12
-1.71029e-13
3.79963e-13
-6.89194e-13
4.72235e-13
-5.79764e-13
8.42086e-13
3.67542e-12
5.0098e-12
1.00021e-12
-7.51579e-13
3.18386e-12
-5.14118e-12
-3.46885e-12
-4.84707e-12
-2.00221e-12
-6.58171e-12
-8.7858e-12
-1.80017e-12
-2.69467e-12
9.23926e-12
-4.47172e-12
2.91356e-12
6.54067e-12
-1.53241e-11
4.29322e-13
-1.9766e-11
-1.67263e-11
-3.98062e-11
-2.37568e-11
-4.5003e-11
-1.27294e-11
-4.4775e-11
3.65534e-12
-7.15759e-11
1.66299e-12
-1.20013e-10
-4.7456e-11
-1.95376e-10
-1.37018e-10
-1.98611e-10
-2.36582e-10
-5.85606e-12
-2.83402e-10
3.93129e-10
-1.85561e-10
9.60518e-10
1.65524e-10
1.33407e-09
5.10373e-10
8.36804e-10
4.04722e-10
-1.24891e-09
-8.85201e-10
-5.09642e-09
-4.29134e-09
-9.9807e-09
-9.9435e-09
-1.27336e-08
-1.69807e-08
-8.208e-09
-2.30231e-08
1.02639e-08
-2.3419e-08
4.81372e-08
-1.12615e-08
1.0867e-07
1.50022e-08
1.81744e-07
5.718e-08
2.3818e-07
9.45169e-08
2.31254e-07
8.89864e-08
8.23466e-08
-1.81367e-08
-2.76708e-07
-3.31397e-07
-9.11153e-07
-9.73546e-07
-1.79435e-06
-2.05664e-06
-2.72485e-06
-3.63215e-06
-3.14864e-06
-5.65534e-06
-2.08317e-06
-7.95662e-06
2.34906e-06
-9.78715e-06
1.28989e-05
-9.65817e-06
3.39211e-05
-6.1953e-06
7.18952e-05
4.46007e-06
0.000133863
2.65729e-05
0.000232113
6.45997e-05
0.000377883
0.000130642
0.000595806
0.000226756
0.000894347
0.000381641
0.00130633
0.000589239
0.00187021
0.000889963
0.00258725
0.00129248
0.00351096
0.00180008
0.00472148
0.00247551
0.00618516
0.00335472
0.00796411
0.00438393
0.0101822
0.00568889
0.012713
0.00722469
0.0156849
0.00896752
0.0192543
0.0110701
0.0230244
0.0134849
0.0276612
0.0162053
0.0329097
0.0195816
0.0384371
0.0231037
0.0446535
0.0267842
0.0509309
0.0309061
0.0583943
0.0352649
0.065915
0.0401976
0.0735558
0.0447976
0.082341
0.0500903
0.0902988
0.055071
0.0984769
0.0596303
0.107625
0.0646682
0.114681
0.0692563
0.123608
0.0738833
0.132404
0.079671
0.139596
0.0839962
0.146791
0.0871903
0.151978
0.090214
0.15844
0.0922547
0.162523
0.0945593
0.165365
0.0944957
0.169353
0.0955893
0.16957
0.0941478
0.168837
0.0914363
0.169308
0.0896441
0.167161
0.0870512
0.162853
0.0815259
0.158998
0.0771597
0.152832
0.0711744
0.146521
0.0636494
0.137911
0.0560484
0.130293
0.0476395
0.120579
0.0396812
0.110155
0.0296058
0.100145
0.0212301
0.0884575
0.0106064
0.0766522
5.56467e-05
0.0653967
-0.00920904
0.0534873
-0.0186529
0.0417564
-0.0290115
0.03008
-0.0377248
0.0189597
-0.0472432
0.00824644
-0.0560325
-0.00266868
-0.0637548
-0.0119267
-0.071116
-0.0209091
-0.0781452
-0.0303905
-0.0842913
-0.0387041
-0.0898053
-0.0459283
-0.094785
-0.0515988
-0.0985248
-0.0573278
-0.102256
-0.0628244
-0.104724
-0.0654396
-0.106398
-0.0708689
-0.107345
-0.0717319
-0.107563
-0.0727385
-0.106792
-0.0756496
-0.106726
-0.0760601
-0.105447
-0.0747029
-0.102933
-0.0752736
-0.100816
-0.0743036
-0.0980657
-0.0729491
-0.0949549
-0.0702817
-0.09129
-0.0684421
-0.0879465
-0.0663068
-0.0840846
-0.062905
-0.0797325
-0.0614316
-0.0760893
-0.0573985
-0.07148
-0.0538643
-0.066917
-0.0516401
-0.0632205
-0.0488265
-0.0594173
-0.0449817
-0.0550753
-0.0425348
-0.0514121
-0.0394945
-0.0475872
-0.0365901
-0.0438853
-0.0334998
-0.0402107
-0.030856
-0.0370445
-0.0283767
-0.0338469
-0.0255829
-0.0305094
-0.0230379
-0.0274302
-0.0210605
-0.0250396
-0.0191522
-0.0227338
-0.0175643
-0.0207329
-0.0159326
-0.0187512
-0.0140791
-0.0166981
-0.0128702
-0.015041
-0.0113309
-0.013292
-0.00995056
-0.01174
-0.00895005
-0.0104555
-0.00774306
-0.0091107
-0.00688731
-0.00809576
-0.00617385
-0.00722853
-0.00543384
-0.00636936
-0.00478133
-0.00559078
-0.00415366
-0.00488266
-0.00365692
-0.00429
-0.00320618
-0.00374027
-0.00274469
-0.00322567
-0.00242766
-0.00282626
-0.00208509
-0.00244004
-0.00180975
-0.00210891
-0.00160054
-0.00183528
-0.00136847
-0.0015594
-0.00112345
-0.0013094
-0.000954023
-0.00116013
-0.000982127
-0.00073064
-0.00104931
-1.61324e-17
1.93017e-16
2.21633e-14
9.39913e-13
1.1987e-11
-1.12688e-10
3.56394e-09
2.32025e-07
7.24323e-06
4.64372e-07
8.659e-05
6.02782e-05
2.02968e-05
-3.08094e-42
-3.20842e-35
-5.66993e-31
-3.78766e-28
5.98536e-28
-1.64241e-25
8.30638e-24
2.13516e-23
2.85834e-23
1.29439e-23
-6.95748e-24
1.74185e-23
3.40943e-23
-2.33801e-24
-6.02369e-23
1.85906e-23
-3.61779e-23
8.43264e-24
2.82441e-24
2.73554e-24
-6.86498e-23
-1.09527e-22
-5.29063e-23
-4.91189e-26
-1.14074e-23
-1.78049e-22
-1.80918e-22
-4.40148e-22
-5.72262e-22
-3.41475e-22
-2.81874e-22
-3.40723e-22
-3.52142e-22
-5.70421e-22
-1.01287e-21
-1.36669e-21
-1.18415e-21
-6.55616e-22
3.44461e-23
5.52448e-22
7.21088e-22
4.70874e-22
-5.29244e-22
-1.65573e-21
-1.99404e-21
-2.76013e-21
-2.71506e-21
-2.20349e-21
-1.4599e-21
-7.88189e-23
9.04974e-22
1.63568e-21
1.61794e-21
1.93545e-21
1.64391e-21
1.38417e-21
1.05578e-21
6.73849e-22
3.73757e-22
1.6887e-22
2.25497e-23
-7.021e-23
-1.22202e-22
-1.31397e-22
-1.19177e-22
-8.41362e-23
-7.01464e-23
-5.45714e-23
-3.29278e-23
-2.2909e-23
-1.42874e-23
-8.31471e-24
-8.30753e-24
-6.149e-24
-7.81613e-24
-8.2803e-24
-5.43364e-24
-4.67848e-24
-4.13801e-24
-2.851e-24
-1.58028e-24
8.9592e-26
4.93857e-25
6.69575e-25
7.46864e-25
8.05023e-25
5.73427e-25
6.2958e-25
5.94923e-25
2.26058e-25
1.90738e-25
1.01358e-25
3.81592e-26
2.01173e-27
-4.77864e-26
-7.7626e-26
5.40252e-25
-7.95638e-24
1.27908e-20
-2.52086e-19
8.90623e-61
2.34554e-06
1.73444e-06
8.3029e-05
4.58706e-05
-1.64574e-05
-3.96614e-07
1.60026e-08
-6.54116e-09
-2.56323e-10
-6.48789e-13
1.4129e-13
3.06407e-15
1.89088e-17
5.58963e-20
1.3464e-21
-1.03165e-22
-9.14489e-26
2.70969e-26
7.56312e-29
-8.52154e-31
-2.9275e-33
9.94992e-36
1.19042e-37
-8.9072e-40
1.54487e-43
3.26339e-44
-2.27872e-46
7.77763e-49
-1.35864e-51
-7.12378e-54
2.59162e-55
-3.0706e-57
8.51965e-14
1.92813e-59
3.79365e-12
4.23716e-11
8.79026e-11
-1.21303e-11
-3.25182e-11
6.48615e-10
1.4668e-09
-2.29755e-09
-1.23341e-08
-1.07433e-08
3.86675e-08
1.00158e-07
-1.45792e-07
-1.41074e-06
-4.39106e-06
-7.58277e-06
-2.85089e-06
3.36452e-05
0.000150167
0.000440296
0.00104347
0.00217473
0.00411987
0.00715827
0.0116493
0.018207
0.0264615
0.037153
0.0506766
0.0655768
0.0829544
0.100785
0.118863
0.13938
0.154458
0.169421
0.17936
0.184805
0.188989
0.18281
0.173102
0.160427
0.142596
0.12103
0.0980385
0.0726059
0.0476865
0.0234969
0.000961132
-0.0203279
-0.0368641
-0.0509887
-0.0612714
-0.0677487
-0.0745539
-0.0735736
-0.0726204
-0.0706169
-0.0657573
-0.0604706
-0.0556206
-0.0478517
-0.0434325
-0.0367252
-0.0314792
-0.0262755
-0.0215222
-0.0178176
-0.014283
-0.0113108
-0.00924075
-0.00705486
-0.00539563
-0.00415984
-0.00309095
-0.00237269
-0.00174291
-0.00132858
-0.00114204
-2.46047e-13
-3.18457e-13
-2.76803e-13
-5.48575e-13
-4.4303e-13
-9.78807e-13
9.24577e-13
1.32609e-12
-3.40813e-12
2.03874e-12
-7.50547e-13
-4.90972e-14
-3.55739e-14
5.34071e-14
-1.51336e-13
1.33708e-13
1.5437e-13
-3.80829e-13
3.01939e-13
-1.68081e-13
-1.23937e-12
5.0684e-14
-2.13825e-15
-1.6295e-13
-4.44324e-12
-4.29271e-12
6.07895e-12
-2.96708e-08
-1.48067e-06
-2.04345e-05
2.87502e-14
-1.9319e-38
-4.53363e-33
-1.72596e-29
-1.97663e-27
1.11574e-25
-1.82691e-24
-1.50928e-23
-2.30278e-23
-2.58465e-23
2.06203e-24
-2.87749e-25
-2.39985e-23
5.61965e-24
1.82571e-23
-2.75398e-24
1.53027e-26
3.24135e-24
-3.57975e-23
-3.62982e-23
1.47162e-23
-7.37977e-23
-1.12355e-22
-4.73012e-23
-1.43878e-22
6.90167e-23
-1.42364e-22
-2.37853e-22
-3.57275e-23
-5.03337e-22
-7.17932e-22
-3.91637e-22
-3.42778e-22
-6.20868e-22
-9.68315e-22
-1.26902e-21
-1.07955e-21
-1.03239e-21
-3.00717e-22
2.24955e-22
7.65957e-22
4.86541e-22
-1.44427e-22
-1.06489e-21
-2.42652e-21
-3.08302e-21
-3.25576e-21
-2.5793e-21
-2.17896e-21
-1.02029e-21
1.53724e-22
1.00775e-21
2.23556e-21
1.84779e-21
2.12473e-21
1.43225e-21
1.31235e-21
8.84367e-22
5.34449e-22
2.80985e-22
6.65547e-23
-1.54254e-23
-9.69592e-23
-1.27757e-22
-1.13856e-22
-1.16875e-22
-7.79122e-23
-5.87751e-23
-5.10057e-23
-2.5985e-23
-1.8216e-23
-1.06001e-23
-9.77798e-24
-9.12663e-24
-8.07904e-24
-7.19476e-24
-8.74862e-24
-4.96411e-24
-4.72412e-24
-3.35647e-24
-2.08562e-24
-9.17744e-25
1.29714e-25
4.46146e-25
9.02617e-25
8.25873e-25
8.17375e-25
7.1927e-25
6.20386e-25
5.92613e-25
3.26361e-25
2.24248e-25
7.59523e-26
5.08705e-26
-2.26819e-26
-5.30212e-26
-6.04528e-26
-1.13537e-24
-8.61211e-22
4.50994e-19
3.02605e-60
1.63095e-44
-3.62212e-10
2.14364e-12
2.69726e-13
4.31518e-15
2.06464e-17
8.31407e-20
1.40339e-21
-1.96468e-22
1.53305e-25
4.53976e-26
1.25103e-28
-1.2853e-30
-4.87007e-33
1.25071e-35
2.0437e-37
-1.45026e-39
2.94046e-43
5.51004e-44
-3.67496e-46
1.31526e-48
-3.10393e-51
-7.3478e-54
4.55581e-55
-5.9414e-57
4.88882e-59
2.9825e-12
3.82325e-11
-2.75067e-11
-1.43536e-10
3.02499e-10
1.47379e-09
2.67093e-10
-7.74173e-09
-1.3481e-08
1.96803e-08
1.05022e-07
6.32827e-08
-7.40934e-07
-3.44195e-06
-8.90261e-06
-1.51261e-05
-1.1785e-05
2.62472e-05
0.000152949
0.000457073
0.00106383
0.00214837
0.00396567
0.0066906
0.01073
0.0158149
0.0226478
0.0311113
0.0400836
0.0507885
0.0623935
0.0732793
0.0857826
0.0935457
0.102057
0.106529
0.106791
0.106675
0.096841
0.0849761
0.0713483
0.0528343
0.0321886
0.0122286
-0.0110339
-0.0300871
-0.0508719
-0.0686004
-0.0831284
-0.0948713
-0.10435
-0.110121
-0.112013
-0.112707
-0.108553
-0.102676
-0.096689
-0.08845
-0.0794181
-0.0716219
-0.0618577
-0.0543407
-0.0456941
-0.0391485
-0.0326455
-0.0267191
-0.0218435
-0.0175288
-0.0138701
-0.0111494
-0.00852139
-0.00656985
-0.00505433
-0.0037695
-0.00286344
-0.00212715
-0.00160859
-0.00128838
3.74765e-13
1.43402e-13
7.38035e-13
7.93819e-14
1.7378e-12
1.92537e-12
2.18651e-13
3.34627e-13
1.25559e-13
-7.4707e-14
1.02067e-13
6.52303e-15
5.63056e-14
-1.93734e-13
2.13014e-13
-9.02855e-14
3.39556e-14
-7.02302e-15
-1.66137e-13
3.08741e-11
-1.576e-10
3.27817e-09
2.97605e-07
1.20986e-05
3.89337e-40
7.56441e-30
1.60648e-27
-5.44625e-26
2.81072e-24
-2.58958e-24
-1.6561e-23
1.17269e-23
4.42213e-23
-1.59469e-23
-3.72404e-23
-5.40306e-23
-5.03382e-23
-3.15657e-23
-2.21619e-23
-9.32744e-24
-3.06802e-23
2.54039e-23
2.14345e-23
-1.82893e-23
6.84341e-23
1.4379e-22
2.32092e-22
5.31394e-22
4.79714e-22
1.17614e-22
3.13464e-22
-7.54013e-23
-2.01052e-22
8.01901e-22
8.91336e-22
7.81437e-22
5.69205e-22
-1.24463e-22
-7.3138e-22
-1.69826e-21
-1.46927e-21
-8.45923e-22
4.55867e-22
1.76624e-21
2.75363e-21
2.85739e-21
1.86833e-21
6.52949e-22
-7.94032e-22
-1.77759e-21
-3.65035e-21
-3.71765e-21
-3.86784e-21
-3.08858e-21
-1.54124e-21
-1.65156e-21
-1.96184e-22
-1.57795e-22
4.13286e-22
5.59742e-22
5.75544e-22
5.20339e-22
3.36627e-22
2.68676e-22
1.74281e-22
9.11423e-23
6.07004e-23
-6.20351e-24
1.52932e-24
-3.93439e-24
-1.25952e-23
-4.38515e-24
4.33304e-24
4.65208e-24
6.52054e-24
1.05552e-23
1.31592e-23
9.93505e-24
4.75824e-24
7.22743e-24
1.48949e-24
3.11124e-25
-4.22316e-25
-1.77485e-24
-1.09838e-24
-8.97781e-25
-7.79089e-25
-1.11402e-24
-5.58862e-25
-6.0675e-25
-6.55468e-25
-4.35527e-26
-2.71962e-25
-1.0987e-26
5.34213e-26
1.32035e-25
9.51491e-26
1.55529e-25
1.97426e-25
-3.02292e-24
9.18727e-23
-1.06969e-19
-3.85089e-14
-3.70222e-16
-4.41285e-19
-2.91962e-20
8.28813e-22
1.89504e-23
-3.22607e-25
-3.60114e-27
6.53892e-30
9.98821e-32
8.97955e-35
-2.30378e-36
-2.33969e-39
1.37223e-40
-9.22287e-43
1.64741e-45
1.467e-47
-1.81587e-49
1.86019e-51
-1.93798e-53
1.56719e-55
-9.78913e-58
-1.76139e-11
1.91474e-11
5.80055e-12
-1.26068e-10
-9.66945e-11
9.45246e-10
1.52196e-09
-2.64656e-09
-1.28196e-08
-4.20575e-09
5.88936e-08
1.27234e-07
-1.82193e-07
-1.78237e-06
-5.85221e-06
-1.22307e-05
-1.57199e-05
1.28328e-06
7.34259e-05
0.000277027
0.000710731
0.00152634
0.00296636
0.00519334
0.00851352
0.0131142
0.0190966
0.0266811
0.0356918
0.0452543
0.0569996
0.0683336
0.0794987
0.0900331
0.0977748
0.10561
0.108099
0.106787
0.103013
0.0925781
0.0792411
0.0636971
0.041757
0.0227694
0.00127605
-0.0205837
-0.0405511
-0.0592222
-0.0759181
-0.0894453
-0.100044
-0.107913
-0.111683
-0.112537
-0.111363
-0.10618
-0.099909
-0.0932126
-0.083207
-0.0756049
-0.0668269
-0.057902
-0.0497353
-0.0423005
-0.0361044
-0.0299499
-0.0240774
-0.01978
-0.0157906
-0.012463
-0.00969815
-0.00759959
-0.00580341
-0.00440484
-0.00326986
-0.00249157
-0.00185991
-0.00141222
-3.91052e-14
-3.71391e-13
-3.45997e-13
-2.15495e-13
-1.38539e-12
-2.10376e-13
-2.67837e-12
-3.3143e-12
3.29757e-12
-6.03242e-14
5.82994e-14
-6.36155e-14
1.37555e-13
6.24743e-14
-1.23709e-13
1.35928e-13
-7.36803e-14
-2.25169e-15
-2.67117e-13
-9.08112e-12
-5.29357e-11
5.06536e-10
-3.55782e-08
-2.14879e-06
-5.10563e-05
8.91513e-32
1.57783e-28
4.0718e-27
-4.24041e-25
-3.58885e-24
1.37239e-23
4.03959e-24
-5.07285e-23
-2.37128e-23
3.32026e-23
6.75812e-23
5.38123e-23
1.08936e-22
6.95665e-23
-3.96688e-23
5.47483e-24
2.69143e-23
6.36211e-23
-5.63302e-23
8.68502e-24
1.3463e-22
2.5956e-22
7.28271e-22
1.72954e-22
1.53815e-22
5.7227e-25
-5.38643e-22
1.6997e-22
1.20617e-21
9.11037e-22
1.03771e-21
9.99279e-22
6.22802e-22
-2.88794e-22
-1.30745e-21
-1.16869e-21
-6.00041e-22
-3.36894e-22
1.18676e-21
2.19371e-21
2.65992e-21
2.55972e-21
2.15903e-21
3.3321e-22
-7.8033e-22
-2.54932e-21
-3.2043e-21
-3.28104e-21
-3.12347e-21
-2.35483e-21
-1.88663e-21
-7.19481e-22
-1.57878e-22
1.34736e-22
4.57459e-22
5.39989e-22
5.26759e-22
4.25777e-22
2.74437e-22
1.99933e-22
1.16302e-22
6.76169e-23
9.448e-24
-6.77243e-25
-8.6323e-24
-1.36425e-23
-8.47461e-24
-4.87264e-24
-2.19254e-24
8.2081e-24
6.78571e-24
1.1459e-23
7.17417e-24
3.67271e-24
6.34125e-24
1.86516e-24
-9.64772e-25
-1.14912e-24
-1.585e-24
-1.57532e-25
-9.01771e-25
-8.01293e-25
-9.14143e-25
-3.15071e-25
-5.1989e-25
-5.18124e-25
-1.70345e-25
-5.64158e-25
-1.03244e-25
4.56501e-26
3.429e-26
6.58601e-26
1.29178e-25
1.64735e-25
1.70038e-25
4.43275e-24
7.27523e-21
-4.88635e-08
2.86875e-11
2.54081e-09
4.73811e-08
-1.28672e-08
1.52477e-14
-1.05747e-11
-1.65744e-13
1.60522e-13
1.51123e-16
1.80965e-12
1.25365e-36
9.91717e-34
3.93559e-43
7.32924e-39
-1.32019e-37
-9.64275e-37
-1.4124e-36
1.24871e-35
-3.66989e-36
1.08907e-34
-2.35682e-36
2.07816e-34
7.95671e-36
-6.92088e-35
2.38052e-35
-7.2109e-34
3.74749e-35
-1.40332e-33
2.62087e-35
-1.90337e-33
-1.10686e-34
-2.21506e-33
-6.48072e-34
3.17836e-34
-1.30344e-33
1.59695e-32
1.39731e-33
6.3815e-32
2.30774e-32
1.09552e-31
1.05946e-31
-6.10739e-32
3.66533e-31
-7.66559e-31
1.27065e-30
-4.84857e-30
2.69706e-30
-2.12915e-29
4.34219e-30
-4.49928e-29
5.38736e-30
-6.53854e-29
5.71121e-30
-7.32747e-29
5.49909e-30
-7.03995e-29
5.22831e-30
-6.62233e-29
5.3192e-30
-6.5209e-29
5.61164e-30
-6.74893e-29
6.23074e-30
-7.29151e-29
6.76255e-30
-8.23624e-29
6.8267e-30
-8.88948e-29
6.1905e-30
-8.4084e-29
5.3884e-30
-6.84534e-29
5.13842e-30
-6.2839e-29
5.13282e-30
-6.32635e-29
4.70747e-30
-6.24676e-29
4.17622e-30
-5.72375e-29
3.67804e-30
-5.12862e-29
2.54177e-30
-3.94336e-29
1.59586e-30
-2.47346e-29
8.74663e-31
-1.34164e-29
3.31601e-31
-4.99097e-30
8.79424e-32
-1.05052e-30
6.69101e-33
1.11722e-31
-2.23727e-33
7.29793e-32
-6.18257e-34
-1.70945e-33
-7.72601e-35
-6.17492e-33
4.11147e-36
-1.71985e-33
5.93696e-36
-2.59534e-34
3.13807e-37
2.90642e-35
-6.0825e-38
3.5618e-36
0
-2.81594e-37
0
1.15553e-42
0
8.46909e-44
0
0
0
0
0
0
0
0
0
0
0
0
0
0
0
0
0
0
0
0
0
0
0
0
0
0
0
0
0
0
0
0
0
0
0
0
0
0
0
0
0
0
0
0
0
0
0
0
0
0
0
0
0
0
0
0
0
0
0
0
0
0
0
0
0
0
0
0
0
0
0
0
0
0
0
0
0
0
0
0
0
0
0
0
0
0
0
0
0
0
0
0
0
1.5631e-14
0
0
0
0
0
0
0
0
0
0
0
0
0
0
0
0
0
0
0
0
0
0
0
0
0
0
0
0
0
0
0
0
0
0
0
0
0
0
0
0
-1.17832e-136
-1.46901e-136
-1.93791e-136
-2.06805e-136
-9.01163e-131
-2.47335e-132
-2.05994e-127
-2.20766e-127
3.42526e-121
4.25574e-121
-1.35092e-120
-1.29097e-119
-4.42273e-114
-1.02098e-114
5.54452e-111
6.96623e-111
8.598e-110
1.1316e-110
5.90588e-107
6.79923e-107
3.96095e-107
4.07213e-107
2.63523e-107
2.64022e-107
5.4405e-106
8.07252e-108
-5.6951e-104
-8.78018e-104
-6.90119e-104
-1.71037e-103
2.74157e-103
-2.85429e-103
-8.23118e-101
-1.22962e-100
-2.51177e-100
-4.12373e-100
-5.01349e-100
-1.92434e-99
-8.81839e-97
-3.54986e-97
-9.19503e-96
-1.09097e-95
-5.91551e-94
1.32265e-93
-1.27045e-92
-9.84156e-93
-7.2784e-92
-5.52617e-92
-5.06018e-92
-1.54974e-92
-2.05037e-91
6.55215e-91
-8.21472e-91
-2.22587e-91
-7.43895e-90
-5.98347e-90
-6.54234e-90
-2.41525e-90
-8.5636e-89
-6.32356e-89
-1.1464e-88
-9.27696e-89
-8.16155e-89
-5.85577e-89
-8.99535e-89
1.98578e-90
-1.70228e-88
-1.29016e-88
-1.65217e-88
-1.16197e-88
-4.43036e-88
-2.63019e-88
-3.24741e-88
-1.21025e-88
-3.50077e-88
6.83408e-89
-4.18688e-87
-4.45974e-87
-5.28282e-87
8.77185e-87
-5.88426e-87
6.21716e-87
-6.71381e-87
3.91122e-87
-5.85538e-87
4.52065e-87
-3.04274e-86
4.82522e-86
-3.26749e-86
2.50137e-86
-1.86069e-85
-1.35536e-85
-1.49951e-85
-1.00431e-85
-1.12422e-85
-6.4329e-86
-3.32865e-85
-1.76914e-85
-4.19032e-85
-2.56058e-85
-7.0847e-85
1.0119e-84
-1.45052e-84
-3.31668e-85
-2.16833e-84
-1.59027e-84
-2.65714e-84
-1.97244e-84
-1.86819e-84
-1.20642e-84
-2.72618e-84
-8.31743e-85
-2.0676e-84
-5.00437e-85
-1.64783e-84
-1.31525e-85
-2.65217e-84
-1.61503e-84
-3.59068e-84
-2.91385e-84
-2.56038e-84
-1.86652e-84
-4.98907e-84
-3.38772e-84
-5.58223e-84
-4.50622e-84
-3.92091e-84
-2.926e-84
-3.53589e-84
-7.96143e-85
-4.3356e-84
-2.83455e-84
-3.17964e-84
-1.59207e-84
-7.47739e-84
-4.71605e-84
-5.52918e-84
-3.2274e-84
-3.93051e-84
-2.51033e-84
-2.77395e-84
-1.34008e-84
-3.02843e-84
-1.91457e-84
-2.91024e-84
-1.70987e-84
-3.094e-84
-2.01055e-84
-4.53767e-84
-1.18715e-84
-3.32573e-84
-7.01104e-85
-2.63576e-84
-5.01032e-85
-4.82884e-84
-2.81414e-84
-3.53976e-84
-1.85395e-84
-2.59568e-84
-1.40566e-84
-3.05436e-84
-1.46913e-84
-2.81964e-84
-1.35418e-84
-2.26742e-84
-5.52583e-85
-1.71187e-84
-3.29031e-85
-1.87546e-84
-9.77521e-85
-1.66884e-84
4.00464e-85
-3.21071e-84
-1.64516e-84
-2.33216e-84
-8.4562e-85
-1.69377e-84
-6.45726e-85
-1.23154e-84
-5.03033e-85
-1.88186e-84
-1.26407e-84
-1.36776e-84
-1.04491e-84
-9.18498e-85
-7.9708e-85
-9.16856e-85
-8.25335e-85
-7.70414e-85
-8.73006e-85
-5.54505e-85
-3.7796e-85
-5.37034e-85
4.09158e-86
-9.46578e-85
7.40073e-86
-7.54232e-85
-3.91168e-86
-1.38467e-84
-2.62957e-86
-1.38644e-84
8.57949e-85
-1.07374e-84
6.01712e-85
-1.27268e-84
1.88996e-84
-1.95089e-84
3.5567e-84
-4.1405e-84
5.96236e-84
-5.84302e-84
7.85406e-84
-1.00836e-83
1.10132e-83
-1.41541e-83
1.37287e-83
-1.49704e-83
1.15621e-83
-1.60475e-83
1.4111e-83
-1.83224e-83
1.1463e-83
-1.9391e-83
1.19601e-83
-2.09828e-83
8.54387e-84
-1.98996e-83
1.14154e-83
-1.72627e-83
9.9904e-84
-1.64517e-83
1.21699e-83
-1.54154e-83
1.30354e-83
-1.57539e-83
1.49103e-83
-1.99134e-83
1.22173e-83
-1.96032e-83
1.51625e-83
-2.09672e-83
1.56111e-83
-2.01869e-83
1.48572e-83
-2.24829e-83
1.18372e-83
-2.13045e-83
1.50241e-83
-2.14656e-83
1.3201e-83
-2.22082e-83
1.44315e-83
-2.11636e-83
1.50026e-83
-2.27398e-83
1.71015e-83
-2.55566e-83
2.03924e-83
-2.69262e-83
1.94966e-83
-2.60133e-83
1.62813e-83
-2.60192e-83
2.02334e-83
-2.60413e-83
1.50641e-83
-2.15161e-83
1.449e-83
-1.86914e-83
1.34698e-83
-1.40036e-83
1.2654e-83
-1.1868e-83
5.81931e-84
-8.58968e-84
1.13105e-84
5.55645e-85
-3.02177e-84
6.59719e-84
-3.8296e-84
8.60912e-84
-7.45724e-84
1.37722e-83
-1.53273e-83
1.60429e-83
-7.56096e-84
1.76392e-83
-1.35281e-83
1.69759e-83
-1.30787e-83
1.82115e-83
-1.16884e-83
1.97143e-83
-6.58286e-84
1.77103e-83
-7.99831e-84
1.71214e-83
-6.61036e-84
1.72561e-83
-4.85708e-84
1.52444e-83
-4.47297e-84
1.42865e-83
-4.5556e-84
1.30541e-83
-5.39201e-84
1.13176e-83
-2.96678e-84
9.09424e-84
-2.11738e-84
6.71114e-84
-1.67577e-84
5.27029e-84
-1.52036e-84
3.49149e-84
-7.08943e-85
1.38629e-83
-8.28826e-85
5.44926e-82
-3.57851e-82
7.29896e-81
2.75727e-80
-5.80612e-80
9.26706e-80
3.4648e-78
-4.32662e-78
-1.85122e-77
-3.04554e-77
1.55023e-76
-2.31934e-76
1.04049e-74
-2.47671e-77
-9.25847e-73
-2.04886e-73
-1.16289e-73
1.62854e-71
-8.20717e-71
-5.16336e-70
-2.04879e-69
-2.45079e-69
1.98942e-69
-5.18447e-69
-1.72692e-66
-5.35663e-67
3.06822e-66
-2.53325e-66
-3.0591e-64
1.60605e-64
-7.80886e-63
-1.86845e-63
-4.46642e-62
-5.62687e-62
-4.20739e-61
2.33627e-60
1.71244e-62
1.66476e-11
-3.0498e-07
-1.36507e-05
6.84978e-05
0.00010238
-2.09132e-05
-1.15703e-08
4.65983e-08
-2.24355e-08
2.35419e-13
6.25795e-14
3.41237e-15
1.21969e-17
5.09735e-20
1.4235e-21
-1.90184e-22
4.57205e-26
4.17437e-26
1.26382e-28
-1.02968e-30
-4.45845e-33
7.68622e-36
1.99015e-37
-1.27223e-39
-6.89781e-43
5.53586e-44
-3.42485e-46
1.08986e-48
-1.77358e-51
-2.47278e-53
6.05279e-55
-6.94269e-57
4.74767e-59
6.72511e-60
-1.84694e-11
-1.40826e-13
1.99292e-11
8.4116e-12
-1.34921e-10
-1.24925e-10
6.87267e-10
7.58172e-10
-3.26254e-09
-1.03834e-08
-1.09871e-09
4.42382e-08
6.15852e-08
-2.43241e-07
-1.4965e-06
-4.27833e-06
-7.72093e-06
-6.94008e-06
1.14643e-05
7.26345e-05
0.00022702
0.000530805
0.00104857
0.00193785
0.00317994
0.00496307
0.00724977
0.00987676
0.0130392
0.016201
0.0187056
0.0220524
0.0235963
0.0242976
0.0235393
0.0205238
0.0176407
0.011325
0.00315505
-0.00510254
-0.0157037
-0.0264717
-0.0356672
-0.0457302
-0.0520458
-0.0578731
-0.061008
-0.0630531
-0.0608676
-0.0591743
-0.0554918
-0.0494738
-0.0455582
-0.0395059
-0.0334573
-0.0281701
-0.021372
-0.0166337
-0.0128997
-0.00738092
-0.00562975
-0.00302714
-0.00102721
9.64053e-05
0.00100317
0.000884358
0.0010367
0.00157373
0.00134271
0.00120258
0.00106992
0.00100039
0.000780574
0.00065542
0.000574793
0.000522451
0.000388401
0.00025811
0.000135598
3.56236e-13
-0.000844218
2.99191e-11
-3.09839e-14
1.99027e-13
5.30963e-13
3.79303e-13
1.21411e-12
1.99604e-12
3.11698e-13
1.10088e-12
1.82609e-13
-7.44883e-14
6.95218e-14
3.76353e-12
-9.89e-14
-2.90367e-14
4.62346e-14
1.09481e-16
-5.28962e-14
2.87829e-14
1.38114e-13
-1.48669e-13
8.86142e-14
-3.66211e-16
-1.61657e-14
-2.86262e-14
-3.57922e-14
-2.36734e-14
-1.20511e-12
4.03652e-13
-7.07543e-12
-6.31936e-12
-2.81455e-10
5.15301e-12
-1.69199e-12
1.78128e-13
-8.10759e-13
4.07889e-13
6.8632e-13
-3.03861e-13
-1.28615e-13
2.70327e-13
-5.17976e-14
6.76618e-13
3.818e-13
1.73267e-12