/*--------------------------------*- C++ -*----------------------------------*\
  =========                 |
  \\      /  F ield         | OpenFOAM: The Open Source CFD Toolbox
   \\    /   O peration     | Website:  https://openfoam.org
    \\  /    A nd           | Version:  7
     \\/     M anipulation  |
\*---------------------------------------------------------------------------*/
FoamFile
{
    version     2.0;
    format      ascii;
    class       volScalarField;
    location    "0.85";
    object      T;
}
// * * * * * * * * * * * * * * * * * * * * * * * * * * * * * * * * * * * * * //

dimensions      [0 0 0 1 0 0 0];

internalField   nonuniform List<scalar> 
23686
(
0.509941
0.910643
0.997281
0.975489
1.00718
1.01727
1.00286
1.00909
1.00026
1.00127
0.999751
0.999405
0.999891
0.999662
0.999995
0.99997
1.00001
1.00003
1.00001
1.00002
1
1
0.999999
0.999998
1
0.999999
1
1
1
1
1
1
1
1
1
1
1
1
1
1
1
1
1
1
1
1
1
1
1
1
1
1
1
1
1
1
1
1
1
1
1
1
1
1
1
1
1
1
1
1
1
1
1
1
1
1
1
1
1
1
1
1
1
1
1
1
1
1
1
1
1
1
1
1
1
1
1
1
1
1
1
1
1
1
1
1
1
1
1
1
1
1
1
1
1
1
1
1
1
1
1
1
1
1
1
1
1
1
1
1
1
1
1
1
1
1
1
1
1
1
1
1
1
1
1
1
1
1
1
1
1
1
1
1
1
1
1
1
1
1
1
1
1
1
1
1
1
1
1
1
1
1
1
1
1
1
1
1
1
1
1
1
1
1
1
1
1
1
1
1
1
1
1
1
1
1
1
1
1
0.11164
-0.00310636
-0.000317299
5.52315e-05
-1.03085e-05
1.75243e-07
1.75516e-07
-3.22223e-08
2.01359e-09
3.75098e-10
-1.68621e-10
1.44734e-11
1.36953e-12
-8.03056e-13
9.05057e-14
5.80322e-15
-3.4234e-15
4.66619e-16
-1.89799e-17
-1.49403e-17
3.77602e-18
-1.48192e-19
-6.49418e-20
2.09348e-20
-2.13722e-21
-2.87139e-22
1.14557e-22
-2.11553e-23
-6.58373e-25
1.29296e-24
-3.76073e-25
-2.02349e-26
3.01407e-26
-1.18387e-28
-2.82092e-27
-1.40716e-28
8.13269e-29
1.97196e-29
-2.32502e-32
-7.25603e-31
-7.21268e-32
1.1333e-32
2.95977e-33
1.32488e-34
-5.28059e-35
-9.29029e-36
-4.80225e-37
5.9969e-38
1.79615e-38
-1.06579e-54
6.62767e-39
-1.90406e-38
-3.66858e-36
8.80919e-35
8.98158e-35
5.23506e-33
2.49909e-31
-2.51086e-30
-1.06971e-28
-8.78422e-28
-2.33753e-26
-1.04419e-25
-7.75088e-25
8.36608e-24
1.62899e-22
2.07776e-22
-7.69403e-21
-1.01255e-20
5.44007e-19
-2.81587e-18
-6.98109e-17
-1.33163e-16
2.36074e-16
1.39895e-14
-3.73655e-15
-5.59814e-13
-6.48602e-13
1.00817e-12
1.35102e-11
-4.28075e-11
-2.63616e-10
1.78237e-09
-1.65676e-09
-4.14611e-09
1.66026e-08
-3.54207e-08
1.57633e-08
2.52405e-07
-4.2914e-07
-1.59262e-06
-1.09515e-06
1.21678e-05
4.83067e-05
-3.26058e-05
-0.000474071
-0.000949009
0.000412523
0.00861389
0.0217504
0.0413521
1
1
1
1
1
1
1
1
1
1
1
1
1
1
1
1
1
1
1
1
1
1
1
1
1
1
1
1
1
1
1
1
1
1
1
1
1
1
1
1
1
1
1
1
1
1
1
1
1
1
1
1
1
1
1
1
1
1
1
1
1
1
1
1
1
1
1
1
1
1
1
1
1
1
1
1
1
1
1
1
1
1
1
1
1
1
1
1
1
1
1
1
1
1
1
1
0.999998
0.999999
0.999996
0.999997
0.999997
0.999998
1
1
1
1
1.00001
1.00001
1.00003
1.00002
1.00004
1.00003
1.00003
1.00003
1.00001
1.00002
0.999974
1
0.999877
0.999934
0.999628
0.999711
0.99898
0.999147
0.99776
0.998106
0.995836
0.996399
0.993002
0.993829
0.989034
0.990258
0.983562
0.985316
0.976282
0.978524
0.966983
0.969758
0.954874
0.958482
0.939998
0.9445
0.921903
0.927335
0.900877
0.907024
0.876573
0.883858
0.84841
0.856854
0.817818
0.826852
0.784243
0.794234
0.747474
0.758329
0.708972
0.720134
0.668772
0.680625
0.625678
0.638272
0.583051
0.595224
0.540068
0.552451
0.496338
0.508931
0.454386
0.466711
0.412196
0.424576
0.372743
0.384272
0.334518
0.345701
0.297688
0.308295
0.263792
0.273273
0.232065
0.240895
0.201592
0.209684
0.173496
0.180384
0.14773
0.153892
0.123805
0.129672
0.101182
0.106597
0.0819257
0.0861437
0.0619104
0.0447483
0.0648618
5.07142e-39
0.0309638
0.0139069
-0.00200416
0.000101508
-3.29739e-06
-3.45346e-06
5.32192e-07
-1.86721e-08
-8.67423e-09
1.98581e-09
-2.29594e-10
-3.01286e-11
1.01881e-11
-1.26524e-12
-1.00732e-13
5.22206e-14
-6.1295e-15
-2.58945e-16
1.91471e-16
-4.45197e-17
2.06868e-18
1.20781e-18
-2.51251e-19
2.00635e-20
4.64551e-21
-1.69411e-21
1.82035e-22
9.29194e-24
-1.18417e-23
2.50141e-24
-2.22849e-26
-2.00125e-25
3.79973e-26
1.18996e-26
-3.7591e-27
-1.08841e-27
9.46729e-29
4.45164e-29
5.7602e-30
-1.15075e-30
-2.81743e-31
-1.71636e-33
7.40754e-33
8.61796e-34
-4.69406e-35
-2.64194e-35
-2.56055e-36
5.79494e-41
4.18442e-38
-0.00133342
7.3142e-39
0.0342113
1.56606e-38
-5.10606e-37
1.32583e-35
-3.1885e-34
-1.25468e-33
-2.14917e-32
-7.11146e-31
2.51736e-29
3.0895e-28
5.28597e-27
5.75382e-26
3.25745e-25
-1.43289e-25
-4.72303e-23
-3.30814e-22
1.51202e-21
1.8262e-20
-1.11586e-19
-9.45058e-19
2.23035e-17
1.23272e-16
1.12763e-16
-3.51222e-15
-2.47868e-14
1.6408e-13
9.65847e-13
-5.60314e-13
-1.99424e-12
-2.66779e-11
2.48422e-10
-4.51565e-10
-1.65315e-09
4.18441e-09
5.74861e-09
-3.77301e-08
3.82394e-08
1.88261e-08
3.35047e-07
-8.26431e-07
-1.89081e-06
2.27352e-07
3.31205e-05
4.82458e-05
-0.000197731
-0.000770632
-0.000924506
0.00392118
0.0163716
0.000148593
0.0642368
-2.77272e-05
0.453368
0.000140418
1.57756e-06
-1.07378e-05
1.40764e-06
-1.25929e-08
-2.71604e-08
5.36429e-09
-5.3326e-10
-1.0663e-10
2.86304e-11
-3.09298e-12
-3.83719e-13
1.51936e-13
-1.55512e-14
-1.30254e-15
5.45717e-16
-1.17128e-16
3.47758e-18
3.73592e-18
-6.78256e-19
4.46359e-20
1.48626e-20
-4.7183e-21
4.27211e-22
3.2689e-23
-3.18489e-23
6.62616e-24
-1.32511e-25
-5.59048e-25
1.34173e-25
3.47627e-26
-1.19034e-26
-3.76546e-27
2.85837e-28
1.58917e-28
2.00766e-29
-3.57957e-30
-1.00462e-30
-1.99117e-32
2.49064e-32
3.27639e-33
-9.7704e-35
-8.85414e-35
-9.95652e-36
-1.01161e-37
1.26715e-37
2.17435e-38
-6.09733e-37
7.00117e-36
-2.63193e-34
-6.23433e-34
-9.96499e-33
-3.35751e-31
2.64312e-29
3.68343e-28
5.13234e-27
4.1226e-26
1.65561e-25
-5.86156e-25
-3.2977e-23
-1.93818e-22
1.07199e-21
8.86855e-21
-1.0665e-19
-7.07821e-19
1.60163e-17
6.47254e-17
-7.91987e-17
-3.00828e-15
-1.82634e-14
1.1672e-13
6.66307e-13
-3.99289e-13
-8.79686e-14
-2.35726e-11
1.78002e-10
-3.27386e-10
-1.08704e-09
2.74503e-09
5.82564e-09
-3.27357e-08
2.81299e-08
4.20488e-08
2.88246e-07
-9.0719e-07
-1.96726e-06
1.17243e-06
3.48649e-05
4.45482e-05
-0.000221901
-0.000828832
-0.000840147
0.00455363
0.0175849
1.75698e-38
-1.13217e-07
5.32847e-07
-8.58979e-08
3.92802e-09
1.22829e-09
-4.57859e-10
3.2832e-11
4.88649e-12
-2.1794e-12
2.26184e-13
2.2301e-14
-9.29584e-15
1.09135e-15
-2.83497e-17
-4.48292e-17
9.81305e-18
-2.25403e-19
-2.02137e-19
5.42315e-20
-4.40178e-21
-9.79347e-22
3.12416e-22
-5.11452e-23
-1.83668e-24
3.37109e-24
-9.93904e-25
-3.66976e-26
9.86745e-26
-2.12511e-27
-8.94801e-27
-5.94207e-28
2.98459e-28
6.67225e-29
4.47325e-31
-2.53707e-30
-2.70415e-31
3.04094e-32
1.0672e-32
5.81147e-34
-1.48849e-34
-3.44215e-35
-2.03685e-36
1.78335e-37
5.86846e-38
-1.34734e-36
8.26126e-35
-8.30397e-35
3.84905e-33
1.50947e-31
-3.48993e-30
-1.1379e-28
-1.09312e-27
-1.98799e-26
-5.60196e-26
-3.95615e-25
6.84811e-24
1.11686e-22
8.24941e-23
-4.76036e-21
4.47075e-21
4.33601e-19
-2.11087e-18
-4.57516e-17
-2.85297e-17
4.43944e-16
1.06403e-14
-6.41973e-15
-4.03031e-13
-4.07986e-13
2.29057e-13
9.74206e-12
-2.2233e-11
-1.83779e-10
1.28232e-09
-1.38111e-09
-2.37673e-09
1.23665e-08
-3.28364e-08
2.03961e-08
2.48134e-07
-3.99939e-07
-1.64722e-06
-1.18788e-06
1.35932e-05
5.05049e-05
-4.12866e-05
-0.000515626
-0.00100813
0.000737901
0.00997116
0.0236358
-0.00528114
-0.00556021
-4.89161e-38
0.594883
-0.00160947
0.942444
1.00339
0.979133
1.00791
1.01325
1.00265
1.00761
0.999944
1.00096
0.999656
0.999356
0.999885
0.999649
1
0.999959
1.00002
1.00003
1.00001
1.00002
1
1
0.999999
0.999998
1
0.999999
1
1
1
1
1
1
1
1
1
1
1
1
1
1
1
1
1
1
1
1
1
1
1
1
1
1
1
1
1
1
1
1
1
1
1
1
1
1
1
1
1
1
1
1
1
1
1
1
1
1
1
1
1
1
1
1
1
1
1
1
1
1
1
1
1
1
1
1
1
1
1
1
1
1
1
1
1
1
1
1
1
1
1
1
1
1
1
1
1
1
1
1
1
1
1
1
1
1
1
1
1
1
1
1
1
1
1
1
1
1
1
1
1
1
1
1
1
1
1
1
1
1
1
1
1
1
1
1
1
1
1
1
1
1
1
1
1
1
1
1
1
1
1
1
1
1
1
1
1
1
1
1
1
1
1
1
1
1
1
1
1
1
1
1
1
1
1
1
1
-1.5514e-37
0.00261077
0.000236229
0.235597
-1.05639e-05
-3.43467e-06
7.57138e-07
-5.52954e-08
-7.56084e-09
3.24048e-09
-3.78286e-10
-2.40992e-11
1.56869e-11
-2.161e-12
-8.04908e-14
7.11497e-14
-1.06666e-14
4.15971e-16
2.82559e-16
-7.50555e-17
4.60108e-18
1.39304e-18
-4.13156e-19
4.44627e-20
4.56869e-21
-2.36392e-21
3.70979e-22
-6.25439e-24
-1.82956e-23
5.62792e-24
-3.42195e-25
-4.10588e-25
7.9011e-26
3.97074e-26
-4.09786e-27
-2.43662e-27
-5.26744e-29
7.80803e-29
1.519e-29
-6.21011e-31
-5.08246e-31
-4.82298e-32
6.05018e-33
1.98458e-33
1.40849e-34
-1.67628e-35
-3.81905e-36
-2.81655e-37
2.3721e-38
5.78192e-38
-0.00445074
-0.00527208
-0.00421271
5.91647e-39
0.0427059
0.0570214
-1.31586e-05
-1.12008e-05
0.517419
7.50909e-35
-7.11988e-35
5.16431e-33
1.41512e-31
-2.51286e-30
-1.30894e-28
-1.2122e-27
-2.39099e-26
-7.66419e-26
-6.26416e-25
5.95812e-24
1.3779e-22
3.11239e-22
-5.5934e-21
-7.14754e-21
5.22447e-19
-9.23874e-19
-6.03157e-17
-8.78887e-17
2.92154e-16
1.36797e-14
1.18825e-14
-5.43724e-13
-1.0287e-12
5.04866e-13
1.14837e-11
8.9856e-13
-3.81024e-10
1.75899e-09
-7.64786e-10
-4.39349e-09
1.04961e-08
-2.44435e-08
1.67228e-08
3.6437e-07
-8.0693e-07
-2.16188e-06
-6.51469e-07
2.32136e-05
6.05319e-05
-0.000108371
-0.000732469
-0.00116626
0.00213545
0.0150683
0.0283571
0.0392144
0.0528654
0.185682
0.025489
7.61732e-05
0.000473589
6.62957e-05
7.89362e-06
1
1
1
1
1
1
1
1
1
1
1
1
1
1
1
1
1
1
1
1
1
1
1
1
1
1
1
1
1
1
1
1
1
1
1
1
1
1
1
1
1
1
1
1
1
1
1
1
1
1
1
1
1
1
1
1
1
1
1
1
1
1
1
1
1
1
1
1
1
1
1
1
1
1
1
1
1
1
1
1
1
1
1
1
1
1
1
1
1
1
1
1
1
1
0.999997
0.999998
0.999997
0.999997
0.999999
0.999998
1
1
1
1
1.00001
1.00001
1.00002
1.00002
1.00003
1.00002
1.00002
1.00003
1.00002
1.00003
1
1.00004
0.999914
1
0.999618
0.999811
0.998874
0.999264
0.997616
0.998249
0.995704
0.996711
0.992829
0.994279
0.988891
0.990834
0.983571
0.986178
0.976294
0.979884
0.966656
0.971041
0.954614
0.960183
0.939823
0.946518
0.921811
0.929938
0.900362
0.909653
0.876393
0.886754
0.848771
0.860939
0.81779
0.830924
0.784272
0.798344
0.747835
0.763175
0.708832
0.724926
0.668736
0.684883
0.626557
0.644003
0.583055
0.600583
0.53971
0.556648
0.49697
0.514074
0.455084
0.471248
0.413828
0.430276
0.373846
0.389384
0.335791
0.350734
0.298938
0.313233
0.264077
0.277195
0.231867
0.243552
0.20134
0.212609
0.171338
0.181466
0.144691
0.153158
0.121607
0.12872
0.100594
0.108129
0.759785
1.90585e-38
-0.000422185
0.806072
-1.43162e-37
0.000213928
-8.32467e-37
6.01824e-39
6.51626e-07
1.63027e-07
-4.58153e-08
4.84777e-09
4.09135e-10
-2.17895e-10
2.77077e-11
1.32196e-12
-1.08696e-12
1.45737e-13
3.00484e-15
-4.18e-15
9.05983e-16
-5.13875e-17
-2.18341e-17
5.60806e-18
-4.348e-19
-8.36258e-20
3.31784e-20
-4.09234e-21
-1.72525e-22
1.79286e-22
-4.19723e-23
1.4647e-24
2.42151e-24
-8.50187e-25
-4.84215e-26
7.68853e-26
8.08028e-27
-4.88987e-27
-6.86496e-28
9.02226e-29
4.11928e-29
2.91585e-30
-8.96358e-31
-1.9779e-31
-9.00038e-34
4.20046e-33
6.69262e-34
-8.25759e-37
-9.83906e-36
-1.17021e-36
1.20417e-39
-9.52482e-37
-2.0881e-07
1.52126e-35
-3.82732e-34
-2.64576e-34
9.19753e-34
-7.1781e-31
2.35804e-29
4.46451e-28
5.03478e-27
5.63793e-26
1.81822e-25
-3.99382e-26
-3.35924e-23
-2.85833e-22
7.66605e-22
1.4179e-20
-8.65802e-20
-1.25952e-18
1.71987e-17
1.07774e-16
-1.92957e-17
-2.89523e-15
-3.07389e-14
1.05907e-13
1.07551e-12
-1.73448e-13
4.44281e-13
-3.80434e-11
2.34841e-10
-1.69568e-10
-2.35714e-09
4.04337e-09
1.12755e-08
-5.50243e-08
5.46259e-08
8.45278e-08
2.25257e-07
-1.25598e-06
-2.16596e-06
3.94125e-06
4.90476e-05
3.37071e-05
-0.000357574
-0.0010753
-0.000596724
0.00772122
0.0253563
1.61869e-06
-3.69776e-12
-8.5784e-37
3.80224e-11
0.0802538
-2.75324e-05
-1.26064e-10
0.0149799
0.00171386
-0.00125553
-0.000708842
-8.33454e-05
6.48125e-05
2.09786e-05
-1.39069e-06
-2.18045e-06
-6.59477e-07
3.51743e-07
2.02188e-08
-3.33846e-08
1.27437e-08
-3.32862e-09
-1.3006e-09
1.60422e-09
-2.79313e-10
-1.19143e-11
1.10561e-11
3.14736e-14
-6.69064e-13
-5.17582e-13
-1.10493e-15
1.44686e-14
6.18614e-16
-1.03398e-17
-5.54213e-17
-1.96209e-18
5.6352e-19
9.72358e-21
-5.70381e-21
9.93689e-23
1.2827e-22
7.73642e-24
-4.21303e-25
-5.61885e-26
-2.66458e-26
-1.46136e-27
-1.49198e-28
-3.8846e-30
1.77915e-31
4.26269e-33
5.30504e-38
-9.56347e-37
-1.1606e-35
-3.37452e-35
5.47657e-34
5.3561e-33
1.23186e-32
-1.74597e-31
-1.31679e-30
-1.84455e-31
4.48441e-29
1.91437e-28
-3.45473e-28
-6.93163e-27
-5.94723e-27
1.04864e-25
1.71937e-25
-1.10575e-24
-1.25781e-26
1.07558e-23
-4.72243e-23
4.88351e-23
5.85621e-22
-5.87034e-21
2.11835e-20
5.15699e-20
-9.22826e-19
4.63015e-18
1.27701e-20
-1.53564e-16
8.68418e-16
-6.22137e-16
-1.79553e-14
1.8342e-13
-5.72659e-13
0.0260332
0.00717897
-0.000818884
-0.00109407
-0.000326775
4.70729e-05
4.83082e-05
2.79822e-06
-2.4969e-06
-1.21605e-06
3.02929e-07
7.57942e-08
4.25767e-08
-4.84132e-08
9.89601e-09
3.43947e-09
-1.70868e-09
-3.02698e-10
2.21792e-10
-3.39377e-11
9.41734e-13
-3.5542e-13
9.15135e-13
1.32998e-13
-2.59251e-14
-3.8243e-15
-1.48193e-16
7.86787e-17
1.8593e-17
-1.05561e-18
-1.24619e-19
1.01704e-20
1.16275e-21
-2.30552e-22
-3.72827e-23
-8.32497e-25
1.45244e-25
5.29419e-26
6.47905e-27
5.03463e-28
3.05618e-29
9.54919e-36
-1.08952e-37
-3.69633e-36
-2.54128e-35
5.15976e-35
2.10694e-33
1.0558e-32
-1.8799e-32
-5.90027e-31
-2.01477e-30
1.14319e-29
1.12104e-28
1.61477e-28
-2.31688e-27
-1.09781e-26
3.0256e-26
1.90125e-25
-2.07896e-25
-1.84958e-24
6.08273e-24
-3.02605e-24
-7.7398e-23
4.56469e-22
-1.176e-21
-5.57206e-21
7.81164e-20
-2.99944e-19
-2.91387e-19
1.18334e-17
-6.81662e-17
8.17478e-18
1.81327e-15
-1.13033e-14
3.26877e-14
2.27852e-13
-2.81782e-12
8.26066e-12
4.07321e-11
-5.316e-10
1.9919e-09
6.03971e-09
-1.04476e-07
5.89488e-07
7.83204e-09
-3.02927e-08
-3.21944e-08
-5.64741e-10
-2.33575e-34
1.08911e-34
-3.68744e-34
-4.20194e-34
-2.69137e-33
-5.14974e-31
0.000277452
0.982244
1.00991
1.00371
1.00638
1.01397
1.00125
1.00491
0.999712
1.00021
0.999713
0.999455
0.999923
0.999743
1.00001
0.999978
1.00002
1.00003
1
1.00001
0.999999
1
0.999999
0.999998
1
0.999999
1
1
1
1
1
1
1
1
1
1
1
1
1
1
1
1
1
1
1
1
1
1
1
1
1
1
1
1
1
1
1
1
1
1
1
1
1
1
1
1
1
1
1
1
1
1
1
1
1
1
1
1
1
1
1
1
1
1
1
1
1
1
1
1
1
1
1
1
1
1
1
1
1
1
1
1
1
1
1
1
1
1
1
1
1
1
1
1
1
1
1
1
1
1
1
1
1
1
1
1
1
1
1
1
1
1
1
1
1
1
1
1
1
1
1
1
1
1
1
1
1
1
1
1
1
1
1
1
1
1
1
1
1
1
1
1
1
1
1
1
1
1
1
1
1
1
1
1
1
1
1
1
1
1
1
1
1
1
1
1
1
1
1
1
1
-7.96593e-31
-1.11632e-05
3.27835e-13
-5.1301e-34
0.0886654
1.42477e-11
-3.23756e-09
2.78352e-09
1.07784e-06
6.55844e-08
-4.30315e-08
-2.53936e-08
5.86964e-09
8.24713e-09
7.47404e-09
0.0214389
0.0663661
-1.9338e-10
-8.49958e-11
-9.20558e-37
3.38049e-11
3.91351e-11
0.0354877
-2.28108e-12
4.5208e-14
5.51268e-14
-1.30448e-14
9.19073e-16
2.33822e-16
-7.68222e-17
7.87696e-18
8.1883e-19
-4.40306e-19
5.80424e-20
9.00539e-22
-2.08737e-21
4.7836e-22
-4.28262e-23
-1.79135e-23
8.35475e-24
-8.82102e-25
-6.79598e-25
7.35583e-26
6.10762e-26
-3.19278e-28
-3.05877e-27
-3.40229e-28
5.67857e-29
1.92328e-29
7.14666e-31
-4.09347e-31
-7.17553e-32
-1.02171e-33
1.45932e-33
1.9281e-34
-4.91934e-37
-3.14868e-36
-1.66997e-05
-2.49828e-05
1.23836e-32
3.5382e-34
9.3765e-35
-4.94655e-34
5.89541e-33
1.23868e-32
1.1867e-31
1.68278e-31
-6.29291e-31
1.58635e-35
1.35369e-34
2.90826e-29
6.29003e-28
6.51788e-27
6.63798e-26
1.10097e-25
-5.03356e-25
-3.47583e-23
-2.86898e-22
7.41922e-22
1.19485e-20
-1.09623e-19
-1.59385e-18
1.74628e-17
1.09216e-16
-1.61994e-16
-3.62725e-15
-3.61159e-14
1.09603e-13
1.31323e-12
1.74037e-13
2.46036e-12
-4.92494e-11
2.3446e-10
3.63768e-12
-3.15146e-09
4.2268e-09
1.66057e-08
-7.27904e-08
6.89012e-08
1.5307e-07
1.18285e-07
-1.59832e-06
-2.55597e-06
7.89009e-06
6.47631e-05
1.85852e-05
-0.000515016
-0.00134426
-0.000217565
0.0113826
0.0204038
-1.62993e-06
-7.78345e-06
1.07711e-06
1
1
1
1
1
1
1
1
1
1
1
1
1
1
1
1
1
1
1
1
1
1
1
1
1
1
1
1
1
1
1
1
1
1
1
1
1
1
1
1
1
1
1
1
1
1
1
1
1
1
1
1
1
1
1
1
1
1
1
1
1
1
1
1
1
1
1
1
1
1
1
1
1
1
1
1
1
1
1
1
1
1
1
1
1
1
1
1
1
1
0.999999
1
0.999997
0.999998
0.999998
0.999998
1
0.999999
1
1
1
1
1.00001
1.00001
1.00002
1.00001
1.00002
1.00002
1.00002
1.00002
1.00003
1.00004
1.00004
1.00007
0.999963
1.00004
0.99966
0.999862
0.998956
0.999349
0.997809
0.998446
0.996061
0.997015
0.99342
0.994795
0.989734
0.991622
0.984665
0.987218
0.97781
0.981185
0.968562
0.972998
0.956914
0.962326
0.942796
0.949364
0.925211
0.933188
0.904348
0.913596
0.880858
0.890804
0.85414
0.865989
0.823926
0.836915
0.790938
0.80517
0.75477
0.770048
0.716338
0.732424
0.676433
0.692914
0.634434
0.651752
0.591627
0.609148
0.547717
0.565048
0.504624
0.521752
0.462531
0.478705
0.421634
0.437955
0.381796
0.397366
0.343341
0.357991
0.30602
0.320273
0.27027
0.283531
0.236989
0.249369
0.205392
0.216936
0.17417
0.184711
0.146098
0.155046
0.121118
0.12807
3.09839e-05
-1.13942e-05
0.0473361
-0.00459306
-4.40635e-10
-5.18254e-10
-0.000867393
7.78045e-05
0.0632037
-3.21089e-37
0.572277
-1.08604e-36
4.50831e-33
0.872928
0.0872107
1.42844e-09
9.19173e-11
6.45133e-07
-8.21647e-08
-2.43459e-34
1.50348e-06
5.74375e-11
0.045799
-1.28844e-14
-8.77942e-13
1.70705e-13
-8.67742e-15
-3.56034e-15
9.99731e-16
-9.07116e-17
-1.42724e-17
5.7723e-18
-7.01604e-19
-4.81972e-20
2.97712e-20
-5.15146e-21
1.88454e-22
1.50227e-22
-5.77621e-23
6.49561e-24
2.64467e-24
-1.3193e-24
-1.53929e-25
1.07519e-25
1.91208e-26
-4.60271e-27
-1.28726e-27
-7.80106e-30
4.27096e-29
5.73705e-30
-4.34987e-31
-2.03613e-31
-1.78823e-32
1.97605e-33
6.28671e-34
3.86376e-35
-5.25646e-36
6.53328e-12
1.60388e-36
0.03455
0.0179633
-0.003371
1.63369e-35
-4.89948e-34
-4.07654e-37
0.921152
-1.68203e-28
-1.51165e-28
-2.58246e-30
6.62243e-28
-4.10824e-30
-1.61712e-27
-3.01087e-26
-6.30583e-26
-4.95609e-25
6.22092e-24
1.35243e-22
2.61438e-22
-5.54293e-21
1.86847e-21
6.17737e-19
-1.89198e-19
-6.33955e-17
-4.06585e-17
5.84906e-16
1.60783e-14
2.47071e-14
-5.65894e-13
-1.37707e-12
-2.32833e-14
8.93552e-12
3.02175e-11
-4.81733e-10
1.84232e-09
-7.28514e-12
-4.56463e-09
3.75909e-09
-1.16393e-08
1.54804e-08
4.69154e-07
-1.17682e-06
-2.73579e-06
-2.46417e-07
3.47507e-05
7.09338e-05
-0.000186287
-0.000981977
-0.00131964
0.0038892
0.000195338
-1.74967e-27
0.100232
0.0738136
0.000138865
0.0103384
-0.000617816
-0.00138803
-0.000475975
3.79462e-05
6.45931e-05
6.13776e-06
-3.05493e-06
-1.56844e-06
2.45574e-07
1.36822e-07
5.75369e-08
-6.69927e-08
1.49894e-08
3.76262e-09
-2.40777e-09
-2.13422e-10
2.28593e-10
-4.61873e-11
3.01041e-12
-1.64473e-13
1.13895e-12
1.47727e-13
-3.19769e-14
-4.48484e-15
-2.94423e-16
7.95258e-17
1.96309e-17
-1.40506e-18
-1.65284e-19
8.46477e-21
1.24997e-21
-7.67416e-36
1.57271e-35
6.28997e-34
3.34698e-33
-1.02651e-32
-2.24537e-31
-9.13585e-31
3.82322e-30
5.29403e-29
9.66e-29
-1.17708e-27
-7.50972e-27
8.08935e-27
1.61153e-25
6.71391e-26
-1.83174e-24
-6.96769e-25
1.7362e-23
-5.30219e-23
-7.45903e-24
8.92771e-22
-5.76281e-21
1.52951e-20
7.80737e-20
-1.06816e-18
3.95796e-18
6.79178e-18
-1.71166e-16
8.42292e-16
-3.43611e-18
-2.72049e-14
-1.09124e-07
-6.80647e-10
0.00317547
-0.00146915
-0.00096422
-0.000151875
7.79896e-05
3.17522e-05
-1.24105e-06
-2.77657e-06
-9.9842e-07
4.63943e-07
1.99957e-08
-2.63352e-08
8.18129e-09
-3.48009e-09
-8.96736e-10
1.78316e-09
-3.81019e-10
1.06477e-11
9.21384e-12
-4.36606e-13
-9.22542e-13
-5.54263e-13
8.0942e-15
1.68651e-14
8.97142e-16
4.11918e-17
-5.95002e-17
-1.48745e-18
6.51437e-19
1.84557e-20
-5.42916e-21
-0.00678227
-0.0031757
-0.00995505
2.50195e-23
1.27944e-22
8.4191e-24
-2.60238e-25
-4.03538e-26
-3.24149e-26
-8.82963e-36
1.51748e-34
1.76661e-33
2.80155e-33
-6.43416e-32
-5.50562e-31
-4.54991e-31
1.83969e-29
9.7431e-29
-1.62701e-28
-3.68354e-27
-8.28277e-27
6.16907e-26
2.26408e-25
-5.70031e-25
-2.91682e-24
7.94865e-24
4.01102e-24
-1.13332e-22
4.49404e-22
-5.94823e-22
-8.12879e-21
7.56278e-20
-2.82195e-19
-7.94014e-19
1.31075e-17
-5.81903e-17
-4.36596e-17
2.08499e-15
-1.163e-14
7.87515e-15
2.89891e-13
-2.47506e-12
-1.62945e-36
0.64697
1.09855e-37
3.93953e-07
-1.16855e-07
-1.51605e-36
1.64758e-13
-3.26548e-13
-3.84306e-12
-3.72413e-36
1.17741e-35
-2.17353e-22
-3.9943e-23
-1.32249e-24
8.52049e-26
3.48648e-29
6.19565e-26
7.87139e-27
0.00045649
-8.04472e-08
0.0158045
-2.58324e-22
1.00293
1.00828
1.01211
1.00307
1.00796
1.00022
1.00185
0.999626
0.999683
0.999808
0.999572
0.999981
0.999882
1.00002
1.00002
1.00001
1.00003
1
1.00001
0.999999
0.999999
0.999999
0.999998
1
0.999999
1
1
1
1
1
1
1
1
1
1
1
1
1
1
1
1
1
1
1
1
1
1
1
1
1
1
1
1
1
1
1
1
1
1
1
1
1
1
1
1
1
1
1
1
1
1
1
1
1
1
1
1
1
1
1
1
1
1
1
1
1
1
1
1
1
1
1
1
1
1
1
1
1
1
1
1
1
1
1
1
1
1
1
1
1
1
1
1
1
1
1
1
1
1
1
1
1
1
1
1
1
1
1
1
1
1
1
1
1
1
1
1
1
1
1
1
1
1
1
1
1
1
1
1
1
1
1
1
1
1
1
1
1
1
1
1
1
1
1
1
1
1
1
1
1
1
1
1
1
1
1
1
1
1
1
1
1
1
1
0.699481
1
-1.02056e-36
0.113514
2.81886e-36
0.0743745
0.228572
5.73605e-09
-1.50644e-10
5.09911e-07
-2.28502e-08
7.20953e-33
-4.40342e-10
-4.58045e-10
1.22949e-06
1.81553e-06
1.39007e-06
2.05668e-36
9.17737e-12
-2.12957e-12
3.98611e-09
2.7054e-07
-1.14256e-07
1.76608e-13
-1.49874e-14
-2.0577e-15
8.95488e-16
-1.10838e-16
-5.92477e-18
4.92388e-18
-7.69635e-19
7.4493e-21
2.30514e-20
-5.34504e-21
6.12882e-22
1.01613e-22
-6.47066e-23
1.31641e-23
3.2016e-24
-1.68617e-24
-3.27269e-25
1.05216e-25
3.07283e-26
-1.80913e-27
-1.42283e-27
-1.03078e-28
3.14961e-29
7.51054e-30
1.21008e-31
-1.44791e-31
-2.38112e-32
-4.2936e-35
4.18429e-34
3.05879e-11
3.00202e-11
0.0448829
-0.00734108
1.09137e-34
8.13797e-26
0.0571933
-2.31744e-30
7.54518e-28
-0.000126951
5.27742e-35
7.81077e-27
-3.59051e-26
-3.70399e-26
7.30335e-26
2.62254e-26
-1.06298e-24
-3.64095e-23
1.29297e-22
1.22967e-22
-1.62963e-22
1.25916e-35
9.85969e-36
8.7553e-22
1.0968e-20
-1.67034e-19
-1.99857e-18
1.73518e-17
1.11877e-16
-3.69866e-16
-4.2438e-15
-4.37935e-14
1.15497e-13
1.55139e-12
5.47777e-13
5.34251e-12
-6.06243e-11
2.10394e-10
1.82809e-10
-3.93866e-09
4.1705e-09
2.25386e-08
-9.2911e-08
8.31669e-08
2.51365e-07
-5.97432e-08
-1.99704e-06
-2.92142e-06
1.41736e-05
8.2827e-05
-1.23816e-05
-0.000725174
-0.00166507
0.000412894
1.22863e-33
6.05379e-33
-1.85186e-27
-1.96399e-27
8.43171e-27
1
0.463776
1
1
1
1
1
1
1
1
1
1
1
1
1
1
1
1
1
1
1
1
1
1
1
1
1
1
1
1
1
1
1
1
1
1
1
1
1
1
1
1
1
1
1
1
1
1
1
1
1
1
1
1
1
1
1
1
1
1
1
1
1
1
1
1
1
1
1
1
1
1
1
1
1
1
1
1
1
1
1
1
1
1
1
1
1
1
0.999999
1
0.999998
0.999998
0.999999
0.999999
1
1
1
1
1
1
1.00001
1
1.00001
1.00001
1.00001
1.00001
1.00002
1.00002
1.00005
1.00005
1.00007
1.00009
1
1.00008
0.999712
0.999909
0.999078
0.999436
0.998059
0.998649
0.996441
0.997346
0.994038
0.995329
0.990652
0.992499
0.985894
0.988394
0.979389
0.982702
0.970604
0.975013
0.95953
0.964878
0.946026
0.952521
0.928725
0.936839
0.908648
0.917722
0.885663
0.896073
0.859598
0.871502
0.830466
0.843442
0.798174
0.812691
0.76229
0.777631
0.724629
0.740887
0.684737
0.701897
0.642736
0.660429
0.600705
0.61805
0.556237
0.574706
0.512877
0.530244
0.470786
0.487942
0.429611
0.446682
0.389807
0.405788
0.3511
0.367017
0.312126
0.327279
0.276445
0.290212
0.242869
0.256029
0.209849
0.222028
0.17708
0.18796
0.147983
0.158183
0.12003
0.129037
0.000126296
0.000292128
0.000347145
0.000322973
0.756643
1.37247e-22
1.41094e-21
-4.29178e-34
1.07669e-33
-1.85901e-10
-7.56028e-10
0.0280702
0.0267137
0.0439474
0.00614212
0.0146119
-7.01572e-34
-7.97536e-34
-1.58176e-28
7.10924e-28
1.88854e-35
1.78539e-35
1.52536e-34
1.80465e-13
3.62397e-13
-0.00272339
-0.00153449
-6.78193e-34
4.4572e-35
1.01455e-36
1.00217e-31
3.19848e-32
2.80755e-32
0.0753562
-5.78561e-11
1.39308e-11
-7.69169e-23
-7.90602e-23
-1.82289e-05
0.104458
2.00754e-09
6.80203e-21
-2.91945e-21
1.26142e-09
9.46367e-09
2.45707e-12
-1.47915e-12
-9.25988e-19
-3.35586e-19
0.00506956
1.17186e-17
9.39403e-18
-3.9272e-12
-5.31109e-13
3.84611e-14
-1.21863e-14
1.3431e-15
1.22825e-16
-6.61892e-17
1.24202e-17
3.09249e-19
-1.5365e-19
6.32238e-20
-9.70046e-21
-1.33583e-21
5.32182e-22
-1.39194e-22
-1.15606e-23
1.10596e-23
-1.17126e-24
-1.01367e-24
2.58519e-26
7.32112e-26
5.95043e-27
-2.52518e-27
-5.02924e-28
1.8854e-29
1.90912e-29
1.89351e-30
-1.82588e-31
-7.03263e-32
-5.20951e-33
6.10636e-34
5.2181e-11
1.75887e-34
0.0579743
-1.59896e-16
-9.31378e-13
-5.66904e-13
3.08789e-14
1.50364e-13
6.44753e-16
1.07175e-15
0.0940065
0.935175
-8.99959e-31
-7.62597e-31
-3.68161e-30
-0.00740284
5.97709e-09
0.96961
-1.28792e-22
1.70909e-34
0.80381
2.96603e-29
-5.11924e-26
-2.57774e-25
7.92419e-24
-5.5069e-21
-5.20543e-21
0.0569193
7.1245e-21
0.202537
1.2282e-20
6.18753e-19
6.25268e-19
-6.62132e-17
9.92493e-18
8.98976e-16
1.90853e-14
3.72881e-14
-5.44287e-13
-1.74531e-12
5.96273e-12
4.13431e-12
6.36945e-11
-6.01811e-10
1.7922e-09
9.24085e-10
-3.99154e-09
-7.36938e-09
7.08676e-09
2.16464e-08
5.66941e-07
-1.6196e-06
-3.4098e-06
8.52328e-07
4.9979e-05
7.74603e-05
-0.000298653
-0.00129459
-0.00141626
7.80514e-10
-7.70529e-06
-2.00856e-05
-3.86177e-06
1.26885e-31
7.04991e-05
3.362e-06
0.266977
-5.9065e-05
-0.00173588
-0.000684285
1.1989e-05
8.39792e-05
1.16912e-05
-3.59017e-06
-2.01577e-06
1.13866e-07
2.29233e-07
7.17179e-08
-8.67626e-08
2.09123e-08
3.81158e-09
-3.09667e-09
-6.70492e-11
2.24138e-10
4.56141e-14
1.33456e-12
9.32878e-34
-2.72431e-33
-7.35554e-32
-3.04316e-31
4.13049e-22
1.17228e-30
2.15713e-29
6.11577e-29
-4.09743e-28
-3.58225e-27
3.73733e-28
8.94814e-26
1.77857e-25
-1.07173e-24
-3.53683e-24
1.0775e-23
-0.00162994
-0.00127965
-0.000253715
8.96378e-05
4.65766e-05
-4.95573e-07
-3.51143e-06
-1.40945e-06
5.80668e-07
2.64537e-08
-1.358e-08
-4.68819e-10
-3.03e-09
-3.13449e-10
1.85079e-09
-4.91728e-10
4.05903e-11
-0.000567361
-0.00980062
5.49778e-12
-1.20229e-12
-5.70902e-13
1.86538e-14
1.96051e-14
1.19453e-15
1.00128e-16
-4.26305e-17
-6.20278e-17
-7.30787e-19
6.9874e-19
-1.80937e-26
3.41765e-29
-1.68336e-26
4.74594e-34
9.53408e-34
-2.02394e-32
-1.78947e-31
-1.91631e-31
6.80907e-30
4.53416e-29
-2.53626e-29
-1.52958e-27
-4.9257e-27
2.60152e-26
1.72303e-25
-1.36589e-25
-2.49099e-24
-3.41699e-25
2.59838e-23
-1.10903e-16
2.11072e-15
-1.77039e-18
-4.7169e-21
-4.77845e-23
-1.86838e-12
1.01973e-19
-9.33279e-15
3.00214e-18
-6.06713e-15
-2.72551e-14
-1.07273e-18
6.79012e-20
3.27638e-22
1.139e-21
1.72432e-23
1.41216e-13
-3.92685e-14
-5.14146e-15
-5.09075e-16
7.4949e-17
1.97172e-17
-2.01717e-19
-3.74611e-23
-1.99657e-24
-2.65544e-26
-1.72992e-28
9.89636e-24
3.07211e-20
-5.58434e-11
-2.2925e-05
-2.7067e-12
0.000244632
1.00755
1.00503
1.00848
1.00124
1.00397
0.999701
1.00032
0.999651
0.999415
0.999889
0.999679
1.00001
0.99995
1.00002
1.00003
1.00001
1.00002
1
1
0.999999
0.999998
0.999999
0.999999
1
1
1
1
1
1
1
1
1
1
1
1
1
1
1
1
1
1
1
1
1
1
1
1
1
1
1
1
1
1
1
1
1
1
1
1
1
1
1
1
1
1
1
1
1
1
1
1
1
1
1
1
1
1
1
1
1
1
1
1
1
1
1
1
1
1
1
1
1
1
1
1
1
1
1
1
1
1
1
1
1
1
1
1
1
1
1
1
1
1
1
1
1
1
1
1
1
1
1
1
1
1
1
1
1
1
1
1
1
1
1
1
1
1
1
1
1
1
1
1
1
1
1
1
1
1
1
1
1
1
1
1
1
1
1
1
1
1
1
1
1
1
1
1
1
1
1
1
1
1
1
1
1
1
1
1
-2.24417e-19
-3.92477e-10
4.90689e-32
-2.89679e-13
-6.119e-33
4.54732e-36
1.01006e-23
-6.90165e-23
-3.18978e-08
-8.38947e-23
-1.21736e-22
-1.69125e-22
5.76801e-20
4.90998e-22
-1.73868e-14
1.37574e-13
2.26174e-13
3.31242e-13
-3.19807e-19
1.42025e-15
3.45988e-18
1.33792e-18
1.5473e-14
9.52068e-14
-1.8793e-14
9.35234e-18
1.01595e-17
-2.29797e-18
-6.48917e-16
1.77165e-15
-1.07101e-12
-7.01679e-17
1.52385e-18
1.46113e-17
4.17916e-12
-1.76229e-12
4.57168e-20
-5.13623e-20
1.08439e-19
-7.1806e-19
-7.0763e-19
0.00919871
-4.97861e-21
6.85466e-30
9.47579e-24
2.48048e-22
-1.83655e-22
9.44075e-14
-0.00136957
2.05411e-23
4.45482e-24
-2.03069e-24
-4.90338e-25
6.7703e-26
3.4001e-26
8.73949e-28
-1.16893e-27
-1.91005e-28
1.1905e-29
1.37344e-29
1.71524e-29
8.93587e-22
1.18146e-21
5.56677e-31
-7.24863e-32
-2.03635e-32
-1.96906e-32
-7.62591e-11
0.568575
0.243387
0.0694742
-2.20956e-12
-3.36947e-12
-1.51984e-28
1.39896e-17
-0.00767335
-3.85235e-26
-1.43788e-08
0.00156734
0.00797713
-1.00548e-33
2.43551e-20
6.9825e-35
2.87048e-29
-1.58507e-28
-2.08914e-24
1.18189e-23
-5.68258e-21
0.0253249
9.94257e-21
5.70472e-21
4.33728e-20
-9.00395e-27
-3.14503e-24
-6.83603e-21
-1.11902e-20
7.48642e-19
-2.04216e-18
-1.96e-19
8.45944e-19
1.69016e-17
-6.57084e-17
6.27861e-17
1.38244e-15
2.16064e-14
5.2997e-14
1.37102e-13
-1.19117e-33
-4.5851e-34
1.6931e-12
-1.55307e-12
8.90359e-12
-1.49232e-12
-1.90149e-12
-4.33534e-12
-1.43087e-12
9.15702e-13
-1.36833e-12
1.07718e-10
-7.03515e-10
1.76039e-09
2.07538e-09
-2.51272e-09
-2.43285e-08
3.65664e-08
3.61146e-08
6.51058e-07
-2.14615e-06
-4.33115e-06
2.94191e-06
7.00147e-05
8.12523e-05
-0.000459597
-0.0016826
-0.00200638
-0.00168109
5.09085e-09
-8.96843e-08
1
1
1
1
1
1
1
1
1
1
1
1
1
1
1
1
1
1
1
1
1
1
1
1
1
1
1
1
1
1
1
1
1
1
1
1
1
1
1
1
1
1
1
1
1
1
1
1
1
1
1
1
1
1
1
1
1
1
1
1
1
1
1
1
1
1
1
1
1
1
1
1
1
1
1
1
1
1
1
1
1
1
1
1
1
0.999999
1
0.999998
0.999999
1
0.999999
1
1
1
0.999999
1
0.999999
1
1
1.00001
1
1.00001
1.00001
1.00003
1.00002
1.00007
1.00006
1.0001
1.00011
1.00003
1.0001
0.999765
0.999951
0.999213
0.999545
0.998339
0.998869
0.996888
0.997763
0.994713
0.995964
0.991682
0.993453
0.987313
0.989711
0.981135
0.98442
0.97298
0.977138
0.962596
0.967863
0.949536
0.955876
0.933007
0.941366
0.913564
0.922858
0.891485
0.902476
0.866241
0.878019
0.838123
0.851168
0.806333
0.820806
0.770893
0.787212
0.733491
0.749946
0.695139
0.712205
0.652874
0.671546
0.610106
0.627934
0.566547
0.586144
0.52272
0.541414
0.48086
0.499208
0.439836
0.457253
0.400023
0.417122
0.360032
0.376412
0.320718
0.337132
0.283588
0.297954
0.250379
0.263747
0.215446
0.229212
0.179728
0.19221
0.151013
0.161495
0.122922
0.133785
1.24879e-21
-6.06364e-21
2.42576e-11
1.84423e-11
2.96857e-33
1.20368e-09
4.45597e-09
9.37411e-11
1.12943e-32
9.66792e-33
5.65611e-32
-4.85474e-17
-2.33755e-17
-6.66693e-34
2.47757e-33
4.058e-35
-3.54549e-10
-2.89979e-10
9.02578e-35
8.52488e-35
4.97223e-09
9.73737e-09
3.0697e-11
6.23306e-12
5.16108e-11
0.579475
0.883085
0.663357
3.21026e-35
-6.11659e-08
-1.47504e-27
-5.64589e-28
1.86872e-13
-1.31806e-07
-6.98687e-08
-3.77596e-23
-3.39246e-23
1.33358e-25
6.62357e-26
-4.22429e-06
-1.2647e-18
-4.95825e-33
-1.60204e-05
2.30513e-32
4.82535e-20
1.26111e-20
-1.69459e-08
-1.70311e-09
-3.66373e-25
-5.82165e-26
-2.30487e-27
0.0358605
1.0975e-24
-8.52965e-25
1.84186e-13
3.61743e-23
1.50883e-23
1.03404e-06
-2.38259e-19
7.2051e-30
2.37768e-30
-9.34666e-15
9.63179e-12
-1.20776e-33
0.000853629
-4.79306e-22
-3.26682e-21
6.87711e-16
-3.24304e-24
1.52714e-23
-3.4008e-24
-1.33997e-24
6.03405e-26
8.69876e-26
1.11062e-26
-1.54987e-27
-5.82136e-28
-3.28738e-29
2.60556e-29
-2.33617e-14
2.27293e-32
-4.90487e-32
2.94884e-35
0.091729