/*--------------------------------*- C++ -*----------------------------------*\
  =========                 |
  \\      /  F ield         | OpenFOAM: The Open Source CFD Toolbox
   \\    /   O peration     | Website:  https://openfoam.org
    \\  /    A nd           | Version:  7
     \\/     M anipulation  |
\*---------------------------------------------------------------------------*/
FoamFile
{
    version     2.0;
    format      ascii;
    class       volScalarField;
    location    "0.32";
    object      T;
}
// * * * * * * * * * * * * * * * * * * * * * * * * * * * * * * * * * * * * * //

dimensions      [0 0 0 1 0 0 0];

internalField   nonuniform List<scalar> 
45544
(
0
0
0
0
0
0
0
0
0
0
0
0
0
0
0
0
0
0
0
0
0
0
0
0
0
0
0
0
0
0
0
0
0
0
0
0
0
0
0
0
0
0
0
0
0
0
0
0
0
0
0
0
0
0
0
0
0
0
0
0
0
0
0
0
0
0
0
0
0
0
0
0
0
0
0
0
0
0
0
0
0
0
0
0
0
0
0
0
0
0
0
0
0
0
0
0
0
0
0
0
0
0
0
0
0
0
0
0
0
0
0
0
0
0
0
0
0
0
0
0
0
0
0
0
0
0
0
0
0
0
0
0
0
0
0
0
0
0
0
0
0
0
0
0
0
0
0
0
0
0
0
0
0
0
0
0
0
0
0
0
0
0
0
0
0
0
0
0
0
0
0
0
0
0
0
0
0
0
0
0
0
0
0
0
0
0
0
0
0
0
0
0
0
0
0
0
0
0
0
0
0
0
0
0
0
0
0
0
0
4.49187e-43
1.23074e-37
4.56065e-38
3.72433e-33
1.13595e-32
3.11874e-30
-8.30483e-30
-1.54446e-29
4.59174e-28
1.3487e-27
1.89051e-27
1.67908e-27
2.07966e-27
2.03824e-27
5.90985e-27
-1.03806e-26
-5.32356e-27
2.15619e-25
1.90719e-25
7.88849e-25
6.45749e-25
2.5453e-26
-1.39365e-24
-9.177e-25
-1.79532e-25
-2.76725e-24
-1.92699e-24
-2.73695e-24
2.52331e-24
4.39831e-24
9.86445e-24
1.28129e-23
1.29659e-23
1.12166e-23
7.75442e-25
-2.34374e-24
-4.96753e-24
-3.92944e-24
-3.46509e-24
-3.19256e-24
-2.66315e-24
-2.02845e-24
-1.06905e-24
-7.7144e-25
-2.70681e-25
-1.69661e-25
-7.86923e-26
1.70106e-26
3.21348e-26
3.00851e-26
3.99133e-26
2.67307e-26
1.82909e-26
1.2478e-26
7.9093e-27
3.68145e-27
2.28774e-27
1.23745e-27
1.94537e-28
1.09339e-28
-8.27944e-29
-7.55094e-29
-6.06292e-29
-4.45251e-29
-2.9163e-29
-1.62561e-29
-1.00762e-29
-5.50551e-30
-3.02605e-30
-1.63408e-30
-8.02103e-31
-2.70947e-31
-1.44586e-31
-5.28237e-32
-1.33845e-32
-4.05117e-33
2.91879e-33
2.04425e-33
1.00625e-33
1.15667e-33
7.21548e-34
4.44486e-34
2.18794e-34
1.07244e-34
5.19542e-35
2.72396e-35
1.33061e-35
5.20291e-36
7.81089e-37
2.51253e-32
0
0
0
0
0
0
0
0
0
0
0
0
0
0
0
0
0
0
0
0
0
0
0
0
0
0
0
0
0
0
0
0
0
0
0
0
0
0
0
0
0
0
0
0
0
0
0
0
0
0
0
0
0
0
0
0
0
0
0
0
0
0
0
0
0
0
0
0
0
0
0
0
0
0
0
0
0
0
0
0
0
0
0
0
0
0
0
0
0
0
0
0
0
0
0
0
0
0
0
0
0
0
0
0
0
0
3.42441e-120
4.28051e-120
2.20725e-120
2.759e-120
5.91097e-119
7.38869e-119
2.12885e-118
2.66134e-118
1.3794e-118
1.72421e-118
1.1043e-117
1.15097e-118
5.10968e-115
5.96574e-115
3.54585e-115
2.84236e-115
2.58677e-115
1.30711e-115
-2.97991e-115
-1.702e-114
2.23073e-113
-1.32828e-112
3.59347e-111
-1.16975e-111
2.18935e-110
-9.71759e-111
8.75739e-108
9.37586e-108
2.43651e-107
2.9019e-107
1.5583e-107
1.83809e-107
1.89973e-107
-1.85599e-107
3.36274e-106
3.69516e-106
3.02624e-106
3.21709e-106
6.60791e-106
9.82094e-106
-4.41534e-103
6.17084e-104
-2.21861e-100
-2.65934e-100
-1.42094e-100
-1.68855e-100
-1.01819e-100
-6.67466e-101
-3.79747e-100
-4.50851e-100
2.63544e-99
9.50826e-99
2.37009e-95
3.01415e-96
4.57265e-93
5.18804e-93
2.70765e-93
2.80837e-93
2.97879e-92
-9.36462e-92
5.65314e-91
4.53217e-91
6.82981e-91
6.77021e-91
1.02732e-90
6.17484e-91
1.01375e-90
-1.87671e-91
6.01704e-90
6.64938e-90
5.13562e-90
-8.77672e-92
1.21506e-89
9.56779e-90
8.32552e-90
6.62909e-90
5.77472e-90
4.70104e-90
5.00594e-90
-4.66161e-91
2.948e-89
2.34746e-89
1.78914e-88
1.96743e-88
6.80512e-88
7.14949e-88
4.54088e-88
4.78358e-88
3.02445e-88
3.13618e-88
7.47639e-88
6.17377e-88
1.44534e-87
1.56016e-87
9.0752e-88
9.13219e-88
2.31618e-87
-5.06474e-87
1.56281e-86
7.28825e-87
1.38991e-86
3.06602e-87
1.14122e-86
1.85034e-87
1.2364e-86
-8.47712e-87
1.43423e-85
1.05702e-85
9.80253e-85
4.61478e-85
7.20305e-85
3.56457e-85
5.40777e-85
2.89571e-85
4.03153e-85
2.03801e-85
2.01562e-84
1.09226e-84
4.03465e-84
3.95351e-84
2.64585e-84
2.52795e-84
2.02737e-84
8.54809e-85
3.44594e-84
2.24856e-84
3.57776e-84
3.01337e-84
4.01576e-84
2.47598e-84
3.45443e-84
-2.55637e-85
4.79343e-84
2.17994e-84
9.41727e-84
-1.9922e-85
7.3044e-84
1.37654e-84
1.02915e-83
8.01664e-84
7.17107e-84
5.77191e-84
5.22174e-84
3.49452e-84
1.49115e-83
1.5077e-83
9.46285e-84
9.25417e-84
9.28648e-84
-4.63151e-84
2.36621e-83
8.18363e-84
2.66461e-83
1.79994e-83
3.01924e-83
1.55472e-83
2.70967e-83
-6.77631e-84
3.3067e-83
7.24897e-84
3.56653e-83
-2.63085e-83
4.80029e-83
1.29096e-83
4.56508e-83
2.56976e-83
3.40396e-83
1.64902e-83
3.16754e-83
2.12677e-83
2.90576e-83
2.39983e-83
2.44219e-83
1.64978e-84
4.82923e-83
4.22355e-83
3.3188e-83
2.35158e-83
2.27648e-83
1.66363e-83
3.74043e-83
2.43378e-83
5.54066e-83
5.41949e-83
3.58407e-83
3.44533e-83
2.362e-83
1.93664e-83
2.14683e-83
1.96754e-83
1.80907e-83
1.74235e-83
1.72261e-83
1.52389e-83
1.19434e-83
8.45137e-84
8.16811e-84
5.95649e-84
5.61517e-84
3.49303e-84
3.74278e-84
2.53433e-84
5.22842e-84
4.77127e-84
3.46717e-84
3.2035e-84
4.54078e-84
3.78471e-84
6.01986e-84
6.21542e-84
3.71635e-84
3.78667e-84
2.56464e-84
1.99133e-84
2.79093e-84
2.2442e-84
2.45173e-84
2.22706e-84
1.94155e-84
1.50862e-84
1.49726e-84
7.1931e-85
3.0418e-84
2.86357e-84
2.01704e-84
1.83487e-84
1.94469e-84
1.66871e-84
1.77898e-84
1.70629e-84
1.1955e-84
1.13528e-84
8.51799e-85
6.28413e-85
1.97539e-84
1.98688e-84
1.24298e-84
1.22289e-84
8.93514e-85
5.51947e-85
9.34209e-85
6.90509e-85
7.88375e-85
6.79016e-85
5.82559e-85
5.12683e-85
3.95684e-85
3.18326e-85
4.86098e-85
5.06309e-85
3.17255e-85
2.92089e-85
2.67159e-85
2.5618e-85
1.78945e-85
1.72394e-85
1.20458e-85
1.15992e-85
7.69838e-86
7.40127e-86
6.64699e-86
6.89979e-86
5.87252e-86
5.38708e-86
4.76302e-86
3.45138e-86
4.79586e-83
1.19036e-83
-6.47373e-81
2.03982e-80
2.69939e-77
3.52043e-77
5.3378e-77
6.85635e-77
3.38078e-77
4.50373e-77
2.30537e-76
-3.83954e-77
1.08813e-73
7.89797e-75
1.22436e-71
5.19368e-72
8.25064e-70
7.98191e-70
7.75156e-70
-4.85535e-69
5.484e-68
-2.56488e-67
1.57225e-66
-1.61907e-67
2.66166e-63
-7.69515e-31
-8.3068e-29
7.64499e-27
-8.87673e-25
1.08498e-23
1.28241e-21
2.2992e-20
1.76055e-19
7.19356e-19
1.91322e-18
3.39128e-18
4.66809e-18
5.57693e-18
6.15574e-18
6.62018e-18
7.1761e-18
7.91886e-18
8.32803e-18
7.84212e-18
6.46444e-18
4.65667e-18
2.93838e-18
1.61859e-18
8.10662e-19
3.59843e-19
1.43592e-19
5.24597e-20
1.59988e-20
3.81175e-21
6.67391e-22
7.47774e-23
4.70797e-24
6.08425e-26
-7.4447e-27
-2.3286e-28
8.32255e-30
7.46745e-33
-6.20889e-33
1.10701e-34
-8.45713e-37
3.97974e-38
-7.4765e-40
5.80075e-42
1.48833e-44
-1.19509e-45
-1.18963e-48
-1.72045e-51
1.27641e-55
-7.33726e-59
9.89238e-06
-2.50797e-05
-1.04334e-05
3.20594e-06
-9.85092e-06
-5.96669e-06
2.00323e-06
-1.48489e-05
-6.39003e-06
-1.89974e-05
-1.32591e-05
-1.86889e-05
-2.07894e-05
7.5681e-06
-1.28654e-05
2.02127e-05
-5.36947e-06
1.99173e-05
1.96375e-06
-5.70312e-05
-3.39477e-05
-0.000207865
-0.000146951
-0.000418572
-0.00035684
-0.000600732
-0.000680556
-0.000515581
-0.00105231
5.52878e-05
-0.00134985
0.00149793
-0.00131542
0.00426611
-0.000848199
0.00901037
0.000378713
0.0148582
0.00306975
0.0266497
0.0493835
0.0407797
0.0500287
0.0558089
0.0447963
0.0515434
0.0468623
0.0495124
0.0472334
0.0514157
0.0476832
0.0517216
0.0474267
0.0517593
0.0465909
0.0509905
0.046091
0.050323
0.047238
0.0507246
0.047737
0.0516899
0.047184
0.0516613
0.0469286
0.051101
0.0476133
0.0512719
0.0472257
0.0516375
0.0461164
0.0507546
0.0465178
0.0502033
0.0488304
0.0530302
0.0329984
0.0445871
-5.87606e-06
2.38344e-06
-9.49187e-06
9.27491e-06
3.12772e-05
-0.000110277
-0.000557861
-0.000566395
0.00182206
0.00983223
9.45704e-07
-1.29866e-05
-1.0652e-05
-1.02561e-05
-9.96608e-06
-9.85247e-06
-1.03468e-05
-1.08051e-05
-1.45425e-05
3.45192e-07
8.16999e-33
0
0
0
0
0
0
0
0
0
0
-1.30283e-40
7.1117e-38
4.78976e-35
1.50146e-32
2.63113e-33
1.0492e-30
-6.29373e-30
-6.11018e-29
8.06269e-28
1.54504e-27
1.7926e-27
1.69435e-27
2.02976e-27
2.16441e-27
-1.61646e-27
-9.48877e-28
-5.10671e-26
2.79536e-25
3.62262e-25
4.83589e-25
8.16898e-25
-1.08707e-24
-1.95381e-24
-1.06871e-24
-1.30015e-24
-2.62074e-24
-3.72928e-24
-5.76686e-24
2.78652e-24
8.30641e-24
1.40432e-23
1.58815e-23
1.31929e-23
7.69374e-24
6.6714e-25
-2.07755e-24
-4.54699e-24
-3.31743e-24
-3.24756e-24
-2.72931e-24
-2.19948e-24
-1.85886e-24
-8.74177e-25
-6.77376e-25
-1.6952e-25
-1.51162e-25
-5.32467e-26
1.00815e-26
2.67596e-26
3.20364e-26
3.2314e-26
2.13326e-26
1.50987e-26
9.66421e-27
6.43275e-27
2.96497e-27
1.66021e-27
8.92905e-28
1.24889e-28
7.51543e-29
-9.6604e-29
-6.31024e-29
-4.69825e-29
-3.47729e-29
-2.1363e-29
-1.28169e-29
-7.5023e-30
-4.0513e-30
-2.2305e-30
-1.10235e-30
-5.94954e-31
-2.03533e-31
-8.0918e-32
-3.68976e-32
-9.58041e-33
-2.0863e-33
1.94519e-33
1.39902e-33
7.87386e-34
8.07058e-34
5.12847e-34
3.12883e-34
1.58567e-34
7.62487e-35
3.70554e-35
1.98086e-35
9.50872e-36
3.83808e-36
0
-4.7283e-34
0
-1.04286e-30
1.06578e-29
3.32595e-63
1.90971e-29
5.47802e-28
-6.16448e-26
-3.06004e-24
1.94066e-22
6.24543e-21
6.72151e-20
3.83778e-19
1.22395e-18
2.63585e-18
4.07138e-18
5.15105e-18
5.90313e-18
6.38948e-18
6.85445e-18
7.55325e-18
8.18733e-18
8.20138e-18
7.23534e-18
5.58697e-18
3.76959e-18
2.23455e-18
1.16634e-18
5.47284e-19
2.31423e-19
8.86277e-20
2.99197e-20
8.20921e-21
1.66524e-21
2.48495e-22
2.05451e-23
7.73262e-25
-1.45661e-26
-1.74924e-27
5.06429e-30
1.49636e-30
-3.46655e-32
8.0121e-35
2.62045e-36
1.31768e-37
-4.81478e-40
2.73451e-41
-1.24405e-42
1.13883e-44
5.58763e-47
2.8591e-50
-2.83738e-54
-8.05534e-58
5.08457e-07
-1.45646e-61
0.00993182
0.0216593
0.0273617
5.02168e-06
-8.03512e-06
-9.20207e-06
1.73077e-05
-1.7273e-05
-0.000330085
-0.000729865
0.000178219
0.00486327
-3.0718e-06
0.0159251
-7.80903e-06
-1.0869e-05
-9.90401e-06
-9.95788e-06
-1.00226e-05
-9.98968e-06
-1.05365e-05
-8.0937e-06
-1.43544e-05
7.03551e-06
0
0
0
0
0
0
0
0
0
2.05451e-40
1.4353e-37
-7.23637e-36
1.58136e-32
7.94508e-32
8.96156e-30
-5.49783e-30
-3.61474e-28
-1.76038e-27
-1.45678e-27
-1.26412e-27
-1.12786e-27
-1.4273e-27
-2.61229e-28
7.5627e-27
-4.02304e-26
-1.44815e-25
-3.18758e-25
-1.41982e-24
-1.34524e-26
9.64547e-25
4.37747e-24
2.60498e-24
2.78829e-24
8.75807e-24
5.86943e-24
7.66724e-24
6.99414e-24
-1.71539e-24
-1.55932e-23
-1.6881e-23
-1.49961e-23
-1.36274e-23
4.84694e-24
-1.26086e-24
-7.7144e-25
1.16742e-24
2.6191e-25
1.58888e-24
1.00712e-24
6.73462e-25
1.45504e-25
5.47489e-25
1.62708e-25
3.21919e-25
1.07389e-25
1.50963e-26
4.69116e-26
2.69004e-26
-9.20301e-27
4.45501e-27
1.91354e-27
6.5972e-28
1.19044e-27
1.67758e-27
-1.04237e-28
-1.62856e-28
4.33389e-28
-1.97138e-28
-3.96143e-29
-1.07753e-28
-3.48023e-29
-2.99025e-29
-2.27918e-29
-1.22094e-29
-5.08459e-30
-3.48442e-30
-1.58047e-30
-9.43841e-31
-4.22792e-31
-2.88919e-31
-3.68115e-32
-2.33507e-33
-8.21329e-33
5.62443e-33
3.58446e-33
5.45069e-33
3.22871e-33
9.78464e-34
9.98051e-34
5.61451e-34
2.89223e-34
1.57107e-34
6.5087e-35
3.20067e-35
1.76459e-35
6.28709e-36
1.59224e-36
1.39428e-34
1.38947e-26
-1.86891e-24
3.53249e-23
2.80873e-21
4.22861e-20
2.98188e-19
1.10325e-18
2.69418e-18
4.45472e-18
5.8413e-18
6.81922e-18
7.45087e-18
7.962e-18
8.73567e-18
9.57222e-18
9.88913e-18
8.98842e-18
7.14888e-18
4.96544e-18
3.03328e-18
1.61471e-18
7.82873e-19
3.3514e-19
1.30019e-19
4.55251e-20
1.30965e-20
2.81726e-21
4.43966e-22
3.96316e-23
1.79927e-24
-1.60806e-26
-3.64524e-27
-1.40283e-29
3.40811e-30
-6.262e-32
-2.27316e-34
1.06559e-35
1.72842e-37
1.20001e-39
3.45953e-41
-2.64243e-42
2.72331e-44
1.23994e-46
6.27742e-50
-8.61094e-54
-1.30835e-57
-4.61339e-61
7.17392e-06
3.06132e-06
-4.37812e-06
1.33393e-05
3.95225e-05
-0.000156732
-0.000771235
-0.0013342
-0.000181005
0.00621822
-5.75146e-06
-1.36369e-06
-1.06739e-06
-1.95797e-06
-1.42915e-06
-1.40056e-06
-1.54411e-06
-3.09238e-06
-5.51542e-06
1.52073e-06
0
0
0
0
0
0
0
0
3.00769e-43
1.66193e-37
-3.22336e-38
2.24203e-33
7.05155e-33
7.41877e-31
2.71577e-29
-9.34713e-30
-1.6536e-27
-1.97123e-27
-6.36139e-28
-1.2507e-27
-1.30313e-27
-9.66556e-28
-1.53312e-26
-5.00384e-27
-4.20658e-26
-4.29106e-25
-5.75927e-25
-1.52507e-24
-8.97698e-25
4.38446e-24
7.50803e-25
-8.41347e-25
3.83328e-26
2.60772e-24
1.71918e-23
3.76458e-24
-1.00372e-24
-1.57548e-23
-9.2716e-24
-2.22112e-23
-1.15986e-23
1.91306e-24
-4.13222e-24
-1.62846e-25
2.30735e-24
8.62334e-25
2.12092e-24
1.37294e-24
1.0613e-24
4.72392e-25
5.86123e-25
2.62364e-25
2.71101e-25
2.36443e-25
9.51442e-27
8.38004e-26
3.34569e-26
-1.28236e-26
6.50104e-27
4.16852e-27
-5.75988e-28
9.11671e-28
1.4344e-27
-2.7785e-29
-9.65607e-29
3.18441e-28
-2.37064e-28
-1.09225e-28
-7.96817e-29
-8.72344e-29
-4.43439e-29
-3.23142e-29
-1.77134e-29
-6.23651e-30
-4.74577e-30
-2.17345e-30
-1.20753e-30
-6.89621e-31
-3.41597e-31
-4.15423e-32
-3.92937e-32
-8.85255e-33
7.98688e-33
3.22634e-33
7.65781e-33
4.70593e-33
1.62275e-33
1.43011e-33
7.97255e-34
4.06741e-34
2.07051e-34
8.81865e-35
4.41638e-35
2.27361e-35
1.02915e-35
2.81884e-36
-4.04611e-36
4.55621e-22
1.26094e-20
1.19693e-19
6.11877e-19
1.81846e-18
3.59462e-18
5.22235e-18
6.39308e-18
7.20224e-18
7.6916e-18
8.30906e-18
9.16516e-18
9.83771e-18
9.58958e-18
8.15516e-18
6.04626e-18
3.95302e-18
2.2369e-18
1.14064e-18
5.15016e-19
2.11003e-19
7.91837e-20
2.523e-20
6.24665e-21
1.16214e-21
1.39443e-22
9.79623e-24
1.89861e-25
-1.37814e-26
-5.70397e-28
1.56197e-29
1.27839e-31
-1.44318e-32
2.39869e-34
-2.03474e-36
8.97054e-38
-1.72578e-39
1.60107e-41
-4.02622e-45
-2.68662e-45
-2.58389e-48
-3.57016e-51
2.73972e-55
-1.80472e-58
1.14954e-62
6.68743e-06
-5.40785e-06
6.58061e-06
2.97507e-05
-8.91688e-06
-0.000408237
-0.00112679
-0.00107899
0.0018167
0.016545
-4.38739e-06
-9.69495e-07
-1.7502e-06
-1.57105e-06
-1.23447e-06
-1.53939e-06
-1.85849e-06
5.8775e-07
-7.08421e-06
3.39127e-06
0
-1.79976e-28
-4.80896e-24
-1.71065e-25
1.53066e-27
1.67115e-07
0
0
0
0
0
0
0
0
0
0
0
0
0
0
0
0
0
0
0
0
0
0
0
0
0
0
0
0
0
0
0
0
0
0
0
0
0
0
0
0
0
0
0
0
0
0
0
0
0
0
0
0
0
0
0
0
0
0
0
0
0
0
0
0
0
0
0
0
0
0
0
0
0
0
0
0
0
0
0
0
0
0
0
0
0
0
0
0
0
0
0
0
0
0
0
0
0
0
0
0
0
0
0
0
0
0
0
0
0
0
0
0
0
0
0
0
0
0
0
0
0
0
0
0
0
0
0
0
0
0
0
0
0
0
0
0
0
0
0
0
0
0
0
0
0
0
0
0
0
0
0
0
0
0
0
0
0
0
0
0
0
0
0
0
0
0
0
0
0
0
0
0
0
0
0
0
0
0
0
0
0
0
0
0
0
0
0
0
0
0
0
0
0
0
0
0
-2.01274e-28
2.13449e-29
4.271e-29
1.53765e-26
0
0
0
0
0
0
0
-3.97224e-38
4.33701e-36
4.87611e-33
5.57022e-31
8.51754e-31
-2.92494e-28
-1.71091e-27
5.84338e-27
2.73524e-26
3.83332e-26
4.56447e-26
4.60855e-26
3.68144e-26
7.57503e-26
2.9475e-25
-2.43501e-25
-2.34597e-24
2.00341e-25
2.00824e-23
2.33975e-23
3.90594e-24
5.04659e-23
1.78142e-23
6.6178e-25
-1.16356e-23
5.1079e-23
2.00565e-22
3.14959e-22
4.18288e-22
2.41178e-22
-1.25295e-23
-1.11097e-22
-2.67907e-22
-2.98713e-22
-2.76495e-22
-2.35583e-22
-1.43219e-22
-1.24575e-22
-6.71041e-23
-4.53746e-23
-1.60601e-23
1.03968e-23
8.4112e-24
8.98263e-24
9.32403e-24
7.38455e-24
5.65539e-24
3.9669e-24
2.5627e-24
1.08744e-24
5.8333e-25
3.4561e-25
1.174e-25
3.93753e-26
-3.49293e-26
-3.51547e-26
-2.73585e-26
-2.21665e-26
-1.41915e-26
-8.72199e-27
-4.89833e-27
-2.47634e-27
-1.36453e-27
-7.51693e-28
-3.45717e-28
-7.48944e-29
-3.67316e-29
1.26269e-29
1.59707e-29
8.78806e-30
8.64135e-30
4.59263e-30
2.65418e-30
1.6569e-30
8.05432e-31
4.40988e-31
2.26943e-31
1.19399e-31
5.49753e-32
2.70198e-32
1.22666e-32
4.81741e-33
2.53011e-33
9.47232e-34
4.29446e-34
1.69794e-34
-3.46422e-35
-7.83004e-35
9.88006e-33
5.54872e-22
0
1.47975e-32
0
0
0
0
0
0
0
0
0
0
0
0
0
0
0
0
0
0
0
0
0
0
0
0
0
0
0
0
0
0
0
0
0
0
0
0
0
0
0
0
0
0
0
0
0
0
0
0
0
0
0
0
0
0
0
0
0
0
0
0
0
0
0
0
0
0
0
0
0
0
0
0
0
0
0
0
0
0
0
0
0
0
0
0
0
0
0
0
0
0
0
0
0
0
0
0
0
0
0
0
0
0
0
0
0
0
1.12889e-117
1.4087e-117
3.22787e-117
4.14775e-117
2.9354e-117
3.65315e-117
1.41737e-116
1.7826e-116
8.96364e-117
1.13778e-116
8.76599e-116
1.99027e-116
4.21593e-113
5.28285e-113
1.48251e-112
-5.5678e-112
1.87654e-112
-2.52079e-112
1.00945e-111
4.23746e-112
7.06854e-110
9.7566e-110
2.0931e-108
-9.3175e-108
5.92697e-108
-6.39853e-108
1.19356e-105
1.38157e-105
1.11006e-105
1.21783e-105
8.12332e-106
7.4601e-106
4.00391e-104
4.6612e-104
4.66121e-104
5.34147e-104
1.98291e-104
6.8556e-104
1.58033e-103
3.49412e-103
-3.37161e-101
-1.35974e-101
-1.18839e-98
-1.35113e-98
-8.5027e-99
-5.72027e-99
-5.6268e-98
-5.12977e-98
-3.98849e-98
-1.63587e-98
-1.06884e-95
1.33533e-96
-2.12312e-93
-3.43665e-93
1.98428e-91
1.975e-91
3.99821e-91
-5.89347e-92
3.6593e-89
3.56402e-89
7.5791e-89
7.69261e-89
5.34546e-89
4.26358e-89
1.77042e-88
1.90463e-89
3.66073e-88
3.26901e-88
2.60815e-88
2.01691e-88
1.60853e-87
1.61203e-87
1.45487e-87
1.50979e-87
9.5781e-88
1.02e-87
6.79791e-88
3.90363e-88
1.89414e-87
1.67287e-87
3.74339e-87
3.30491e-87
7.36667e-87
7.36579e-87
3.59115e-86
2.8605e-86
2.36608e-86
1.93413e-86
1.66948e-86
1.26608e-86
7.11919e-86
6.89999e-86
5.80218e-86
4.5104e-86
5.74864e-86
1.45443e-87
1.19101e-84
6.31076e-85
1.93995e-84
1.16829e-84
2.21642e-84
-1.54257e-84
1.97873e-84
-9.5592e-85
3.44208e-84
1.56127e-84
1.03613e-83
-1.19857e-83
1.06409e-82
9.07854e-83
7.54764e-83
4.54894e-83
5.45058e-83
2.79501e-83
4.10539e-83
1.73934e-83
1.90566e-82
1.65565e-82
1.5677e-82
1.34332e-82
1.08733e-82
8.95328e-83
2.19168e-82
1.68111e-82
2.78968e-82
2.4498e-82
1.98581e-82
1.38675e-82
3.32752e-82
5.06681e-83
5.72335e-82
4.58511e-82
4.9717e-82
8.01813e-83
1.4777e-81
1.50966e-81
9.58353e-82
8.88912e-82
6.29668e-82
5.75454e-82
4.1782e-82
3.46924e-82
3.71889e-82
3.25762e-82
4.9551e-82
4.63934e-82
3.56463e-82
2.49231e-82
1.73702e-81
1.15812e-81
2.35982e-81
1.736e-81
1.70813e-81
1.0542e-81
2.39921e-81
3.07929e-82
4.13365e-81
3.14778e-81
3.63766e-81
9.71257e-83
6.98537e-81
6.04513e-81
4.79686e-81
3.84201e-81
3.26842e-81
2.51797e-81
2.71762e-81
1.87886e-81
1.95287e-81
1.22377e-81
1.39407e-81
7.59303e-82
2.99099e-81
2.64106e-81
2.08416e-81
1.32136e-81
2.01402e-81
1.71422e-81
1.35087e-81
1.04552e-81
2.54622e-81
2.2632e-81
1.85352e-81
1.68162e-81
1.22196e-81
1.13919e-81
1.19556e-81
1.09134e-81
8.92018e-82
8.06902e-82
6.58178e-82
3.09159e-82
7.95215e-82
6.67334e-82
8.06775e-82
8.17657e-82
5.28944e-82
5.29989e-82
4.40875e-82
4.67982e-82
2.71504e-82
2.71706e-82
2.4343e-82
2.5761e-82
1.52627e-82
1.56942e-82
2.53948e-82
2.49431e-82
1.88139e-82
1.80858e-82
1.20099e-82
1.13495e-82
1.5696e-82
1.33697e-82
1.63582e-82
1.49519e-82
1.1015e-82
9.41277e-83
1.14305e-82
4.08183e-83
1.32257e-82
1.00724e-82
1.18294e-82
6.03987e-83
8.25129e-83
4.43845e-83
8.98497e-83
5.34117e-83
6.2806e-83
3.75063e-83
4.37765e-83
2.70761e-83
4.83024e-83
3.54869e-83
6.0603e-83
5.69168e-83
3.97006e-83
3.57732e-83
6.20629e-83
5.37348e-83
5.42995e-83
5.07573e-83
3.49508e-83
3.32298e-83
2.4843e-83
2.07758e-83
1.98571e-83
1.91067e-83
1.28533e-83
1.16281e-83
1.21528e-83
1.06326e-83
9.50149e-84
8.76839e-84
6.12688e-84
5.86424e-84
4.17738e-84
4.20105e-84
2.71913e-84
2.68927e-84
1.80151e-84
1.46628e-84
2.33903e-84
2.29448e-84
1.59007e-84
1.49425e-84
2.56024e-81
-2.22655e-83
-1.6637e-78
1.45323e-78
3.99308e-75
5.07846e-75
2.37987e-75
3.99365e-75
1.42117e-75
2.81977e-75
6.95721e-74
5.08608e-74
1.79556e-72
2.21881e-72
4.13681e-70
-1.71059e-70
5.12436e-68
4.16039e-68
2.341e-66
2.09631e-66
3.63096e-64
4.4039e-64
2.57149e-64
1.01796e-62
3.02848e-64
-5.40785e-24
6.71863e-06
-5.00474e-06
-5.29926e-07
-2.22472e-24
-4.7033e-24
1.85682e-27
-4.28194e-28
4.75008e-27
4.44439e-23
-6.51326e-24
1.25039e-22
-2.10295e-25
-5.5962e-25
1.50717e-20
1.42738e-19
7.27108e-19
2.16005e-18
4.26959e-18
6.19983e-18
7.58858e-18
8.56515e-18
9.11885e-18
9.86976e-18
1.0869e-17
1.16685e-17
1.13786e-17
9.6575e-18
7.15687e-18
4.68327e-18
2.65328e-18
1.35173e-18
6.10157e-19
2.49747e-19
9.35317e-20
2.979e-20
7.40866e-21
1.37843e-21
1.66151e-22
1.17308e-23
2.35705e-25
-1.61475e-26
-6.85327e-28
1.78919e-29
1.69083e-31
-1.70885e-32
2.76121e-34
-2.23402e-36
1.02996e-37
-1.98879e-39
1.84862e-41
-8.07125e-45
-3.05704e-45
-2.90419e-48
-3.97481e-51
3.12562e-55
-1.98263e-58
-5.15758e-61
-1.3031e-60
2.55698e-62
6.50291e-06
4.49977e-06
0.0194076
1.08338e-05
2.48649e-05
2.56233e-05
9.45585e-06
2.20692e-05
-1.77633e-05
6.1782e-06
-3.2871e-05
-9.8349e-06
-8.90145e-06
-7.56227e-06
3.21041e-05
3.52819e-05
6.98793e-05
8.35808e-05
3.08208e-05
0.000113128
-8.70812e-05
7.25901e-05
-0.000253358
-2.70265e-05
-0.000445616
-0.000174652
-0.000525278
-0.000336137
-0.000388819
-0.000423559
3.65784e-05
-0.000418719
0.000879378
-0.000233217
0.00205399
0.000152152
0.00374641
0.000458955
0.0320879
0.0750647
0.0665351
0.078908
0.0641343
0.0704059
0.0670626
0.0713069
0.0672854
0.0732474
0.0668327
0.0729518
0.0657412
0.0719527
0.065118
0.0709066
0.0657392
0.0710797
0.0669904
0.0720545
0.066758
0.072776
0.0661559
0.0721952
0.0663782
0.0720211
0.0667743
0.072495
0.0660296
0.0722413
0.0643947
0.0704641
0.0702343
0.074039
0.060397
0.0511269
0.0719006
0
2.75824e-07
-1.8797e-05
4.47528e-05
9.20034e-06
-0.000331118
-0.000536164
0.000303501
0.00290634
0.0107228
1.7146e-05
1.15804e-05
1.12793e-05
2.70505e-06
1.88817e-06
5.04263e-06
4.60883e-06
4.55966e-06
4.82715e-06
4.67026e-06
5.00885e-06
6.14496e-06
-6.72369e-07
2.12279e-06
0
0
0
-2.48823e-05
-1.02336e-05
-4.67416e-06
0.0528132
0.0699291
0.0370567
-2.08617e-06
-5.58076e-06
0.00668086
0.000456241
-6.61178e-07
1.38444e-06
1.66291e-32
0
0
-1.71999e-30
2.48745e-26
0
-1.15831e-30
0
0
0
0
0
0
-2.34048e-40
1.70147e-35
2.91537e-36
3.11601e-31
1.05353e-29
2.55256e-28
-7.69147e-28
-2.84602e-27
2.03152e-26
3.21243e-26
4.42701e-26
4.52027e-26
3.6852e-26
3.31175e-26
-5.45905e-27
-4.64983e-25
-2.22606e-24
-6.95904e-24
6.45215e-24
6.10983e-24
1.42326e-23
2.75134e-23
4.98798e-23
1.88593e-23
1.87192e-24
7.0088e-23
2.13023e-22
2.0893e-22
3.50877e-22
3.65027e-22
1.08069e-22
-4.40474e-23
-1.84265e-22
-3.23725e-22
-2.97359e-22
-2.33028e-22
-1.54116e-22
-1.32169e-22
-6.98845e-23
-4.27612e-23
-1.93423e-23
2.28245e-24
9.523e-24
1.07339e-23
1.05855e-23
8.39429e-24
6.35641e-24
4.84682e-24
3.02187e-24
1.49797e-24
7.13884e-25
4.39719e-25
1.47129e-25
5.47308e-26
-1.63786e-26
-3.70018e-26
-3.04678e-26
-2.60737e-26
-1.82112e-26
-1.10959e-26
-5.92954e-27
-3.91555e-27
-1.85007e-27
-1.02877e-27
-4.68688e-28
-1.19248e-28
-5.29787e-29
1.29034e-29
2.22227e-29
1.19676e-29
9.55769e-30
6.4241e-30
3.65058e-30
2.24597e-30
1.15232e-30
6.06101e-31
3.15046e-31
1.63759e-31
8.08149e-32
3.85439e-32
1.75369e-32
6.99118e-33
3.4499e-33
1.35312e-33
6.32671e-34
2.47866e-34
4.50223e-35
-4.9603e-35
-5.77598e-34
0
0
0
0
0.00107789
3.39112e-21
5.03754e-20
3.54206e-19
1.31337e-18
3.19915e-18
5.29295e-18
6.93473e-18
8.10053e-18
8.85747e-18
9.44629e-18
1.03702e-17
1.13551e-17
1.17334e-17
1.06471e-17
8.46913e-18
5.8737e-18
3.59826e-18
1.91549e-18
9.27407e-19
3.96236e-19
1.53843e-19
5.38797e-20
1.54909e-20
3.33751e-21
5.25628e-22
4.72776e-23
2.17699e-24
-1.72596e-26
-4.33379e-27
-2.06641e-29
4.03533e-30
-7.22571e-32
-3.35734e-34
1.39526e-35
1.88842e-37
1.56354e-39
3.50229e-41
-3.00469e-42
3.12704e-44
1.40228e-46
7.07108e-50
-1.11048e-53
-1.33871e-57
0
5.20018e-07
0.0100202
0.0209587
-5.5148e-07
0
-1.80125e-05
-3.6256e-07
6.80975e-05
-0.000136375
-0.000512924
-0.000298596
0.00140424
0.000608942
0.00562493
1.10317e-06
4.58476e-06
5.968e-06
4.70116e-06
1.03201e-06
1.77322e-06
4.78169e-06
4.72075e-06
4.95973e-06
3.72333e-06
7.21516e-06
-1.24958e-06
-1.28176e-06
0
-3.30243e-33
0
-5.5064e-06
4.36359e-06
7.73456e-07
1.17597e-06
1.06143e-06
-1.89648e-05
-0.000502312
-0.000423772
-0.000103859
7.69924e-05
2.92572e-05
-4.0681e-58
6.55882e-55
-8.49619e-51
-6.04417e-48
-6.8368e-45
-1.10745e-43
4.66027e-41
-4.47632e-39
2.13945e-37
-4.55532e-36
5.70811e-34
-3.84317e-32
6.06809e-31
3.011e-29
-1.54717e-27
-2.88188e-26
5.99402e-25
2.32371e-23
3.07429e-22
2.31193e-21
1.20024e-20
4.49612e-20
1.35542e-19
3.59022e-19
8.64582e-19
1.85696e-18
3.58989e-18
6.12682e-18
9.16386e-18
1.18723e-17
1.35538e-17
1.35585e-17
1.24131e-17
1.12846e-17
1.05221e-17
9.75455e-18
8.54081e-18
6.7924e-18
4.37214e-18
1.95616e-18
1.47294e-32
1.64773e-34
-1.03842e-34
2.93543e-35
1.39472e-34
3.96408e-34
1.28875e-33
2.16999e-33
6.91898e-33
1.76676e-32
3.44856e-32
7.9572e-32
1.45512e-31
2.76618e-31
6.40988e-31
1.342e-30
2.5559e-30
4.38613e-30
8.51453e-30
1.2754e-29
2.6496e-29
2.67595e-29
8.01628e-30
5.53376e-29
-4.87075e-29
-2.72129e-28
-4.28078e-28
-3.72952e-28
-7.63645e-28
-1.5282e-27
-2.96925e-27
-4.72941e-27
-3.86076e-27
-7.52121e-27
-4.38845e-27
-2.37805e-26
-1.13533e-25
-1.81744e-26
-2.21838e-25
-4.03425e-25
-1.28445e-25
2.42633e-25
-4.60084e-25
-7.40773e-26
6.82407e-25
1.15535e-24
4.86451e-24
3.60629e-24
1.28782e-23
4.61402e-23
4.61047e-23
7.65813e-23
1.20679e-22
1.64269e-22
1.14494e-22
2.60639e-22
3.91419e-22
1.83269e-22
3.83688e-22
-1.61722e-22
-4.00961e-22
3.68173e-35
-1.86125e-38
-6.97488e-22
-1.64311e-22
-2.66365e-22
-2.10768e-22
2.50759e-23
3.02944e-23
-8.33883e-23
-8.02996e-23
-6.69163e-23
-7.98936e-24
-3.79761e-23
5.64418e-24
1.37261e-25
-8.99191e-25
-4.37184e-26
-2.76927e-26
-4.13421e-26
-4.49927e-26
-6.0258e-26
-3.30321e-26
-3.37104e-26
2.6842e-27
1.4705e-27
-4.47184e-30
-1.27015e-30
1.32591e-06
-1.26816e-06
1.92562e-06
1.61516e-06
1.04875e-06
1.01032e-06
1.01846e-06
0.00567222
7.11717e-05
-0.000244127
-0.000542871
-0.000258559
4.24841e-05
4.75775e-06
-1.87871e-57
-3.02709e-53
1.55537e-49
3.03885e-46
7.47052e-44
-6.05707e-42
7.50533e-42
9.00403e-39
1.52141e-37
4.31929e-35
-1.67938e-33
-1.17109e-31
8.68846e-30
-9.77855e-29
-8.69192e-27
-1.95309e-27
4.69415e-24
8.86708e-23
9.10637e-22
5.50398e-21
2.39935e-20
8.09058e-20
2.24815e-19
5.6229e-19
1.28369e-18
2.61933e-18
4.79971e-18
7.59573e-18
1.0617e-17
1.28688e-17
1.37075e-17
1.3034e-17
1.17849e-17
1.08552e-17
1.01891e-17
9.21053e-18
7.71868e-18
5.6136e-18
3.08107e-18
0
1.2468e-21
2.30985e-34
-8.31843e-35
-4.37265e-35
5.87183e-35
2.44968e-34
5.01354e-34
1.64762e-33
3.1842e-33
1.09157e-32
2.41495e-32
5.1267e-32
1.07297e-31
1.94465e-31
4.83661e-31
9.09003e-31
1.68316e-30
3.6093e-30
6.43823e-30
8.42358e-30
1.76329e-29
3.70964e-29
4.64854e-29
2.46413e-29
4.14922e-29
-7.29039e-29
-2.83874e-28
-2.77883e-28
-1.04322e-27
1.96689e-29
-2.12772e-27
-3.97239e-27
-2.52974e-27
-4.72318e-27
-1.04627e-26
2.5809e-26
-5.91218e-26
-1.61741e-25
-3.07417e-26
-3.14846e-25
-1.64706e-25
-1.90134e-25
-1.7549e-25
7.87898e-27
-4.18694e-25
-6.26044e-25
2.97394e-24
4.08097e-24
-1.32511e-23
1.19448e-23
6.64582e-23
9.33524e-23
8.061e-23
1.65157e-22
1.74759e-22
1.98113e-22
2.84929e-22
3.62902e-22
3.07791e-22
-1.23783e-23
-5.89009e-23
-4.64172e-22
-3.8577e-22
-4.60021e-22
-1.88671e-22
5.82246e-23
1.29395e-22
7.48477e-23
-1.44866e-22
-3.07311e-23
-1.85672e-23
-3.0972e-23
4.95935e-24
1.63118e-24
1.53705e-24
-2.3177e-25
-1.64782e-26
-3.54267e-26
-4.66074e-26
-4.97331e-26
-4.9459e-26
0
-3.51644e-26
-9.63088e-27
3.67597e-28
-6.86862e-28
1.25913e-29
2.71023e-31
-1.21813e-35
2.19257e-35
-6.06031e-43
0
0
0
0
0
0
5.80658e-19
9.01083e-20
6.9186e-21
2.85868e-20
2.50571e-19
1.12395e-18
-1.79773e-05
-3.91834e-06
8.15396e-05
6.93405e-07
8.83597e-07
9.75643e-07
9.77683e-07
0
0
0
0
0
0
0
0
0
0
0
0
0
0
0
0
0
0
0
0
0
0
0
0
0
0
0
0
0
0
0
0
0
0
0
0
0
0
0
0
0
0
0
0
0
0
0
0
0
0
0
0
0
0
0
0
0
0
0
0
0
0
0
0
0
0
0
0
0
0
0
0
0
0
0
0
0
0
0
0
0
0
0
0
0
0
0
0
0
0
0
0
0
0
0
0
0
0
0
0
0
0
0
0
0
0
0
0
0
0
0
0
0
0
0
0
0
0
0
0
0
0
0
0
0
0
0
0
0
0
0
0
0
0
0
0
0
0
0
0
0
0
0
0
0
0
0
0
0
0
0
0
0
0
0
0
0
0
0
0
0
0
0
0
0
0
0
0
0
0
0
0
0
0
0
0
0
0
0
0
0
0
0
0
0
0
0
0
0
0
4.72638e-29
2.60518e-26
6.93512e-19
-1.63982e-05
0
0
0
0
0
0
0
0
0
-2.20167e-26
4.39783e-21
-4.89898e-41
1.60339e-33
0
0
7.06439e-31
5.96936e-07
1.88668e-29
7.44822e-28
5.5821e-26
-3.45979e-26
-3.431e-26
4.00365e-26
-1.35557e-25
-1.0093e-24
0
-4.37744e-41
6.56927e-25
7.97197e-25
6.63222e-25
7.27354e-26
-2.54778e-25
2.69866e-24
-8.93632e-24
-1.40148e-22
-3.03779e-23
-5.04444e-22
-2.03609e-22
4.67216e-22
9.51619e-22
5.20378e-22
1.31381e-21
1.23765e-21
6.46338e-22
3.48752e-21
5.89548e-21
6.82454e-21
-1.19348e-30
-7.0729e-30
-1.63948e-21
-7.82699e-21
-7.59102e-21
-9.12379e-21
-6.19838e-21
-2.66155e-21
-1.11174e-21
2.53888e-22
1.26395e-21
1.12489e-21
1.66662e-21
1.53385e-21
1.36564e-21
8.96499e-22
6.34215e-22
3.96449e-22
2.03389e-22
1.10562e-22
1.22534e-24
-5.3839e-24
-1.50747e-23
-2.19348e-23
-1.71053e-23
-1.14616e-23
-7.76993e-24
-5.11657e-24
-2.24839e-24
-1.22421e-24
-6.51388e-25
-1.53939e-25
-7.15768e-26
1.44623e-26
2.71841e-26
2.33323e-26
2.47248e-26
1.44788e-26
9.07934e-27
5.54327e-27
2.96036e-27
1.57127e-27
8.75256e-28
4.52083e-28
2.07852e-28
1.01515e-28
5.28053e-29
1.83508e-29
8.6946e-30
1.4632e-30
8.05586e-32
6.23407e-32
-1.4767e-31
-1.39454e-31
-8.00971e-32
-4.94078e-32
-2.4551e-32
-1.85305e-32
-9.38761e-33
-4.53659e-33
-3.29924e-33
1.14394e-32
0
0
0
0
0
0
0
0
0
0
0
0
0
0
0
0
0
0
0
0
0
0
0
0
0
0
0
0
0
0
0
0
0
0
0
0
0
0
0
0
0
0
0
0
0
0
0
0
0
0
0
0
0
0
0
0
0
0
0
0
0
0
0
0
0
0
0
0
0
0
0
0
0
0
0
0
0
0
0
0
0
0
0
0
0
0
0
0
0
0
0
0
0
0
0
0
0
0
0
0
0
0
0
0
0
0
4.69642e-115
5.86355e-115
3.28645e-115
4.09794e-115
2.30002e-115
2.88442e-115
1.19885e-114
1.49396e-114
1.07257e-114
-4.76059e-115
-4.3503e-113
-5.31053e-113
1.61719e-111
-1.05442e-111
4.20874e-109
4.97175e-109
2.8421e-109
2.59286e-109
2.49195e-109
1.88647e-109
1.61415e-107
1.26041e-107
1.16573e-104
1.34411e-104
8.52388e-105
5.17074e-105
8.74675e-104
9.91738e-104
1.12856e-103
-1.74466e-103
1.21572e-103
-1.28653e-103
4.68394e-102
5.45446e-102
4.25028e-102
-1.70035e-102
5.51596e-101
8.00222e-101
3.40403e-101
4.78371e-101
-1.12731e-99
1.89653e-99
-1.31508e-96
-9.34967e-97
-4.90054e-96
-2.2813e-96
-1.87965e-95
-1.82048e-95
-3.52892e-95
9.00227e-95
-1.65742e-93
-3.07864e-94
-2.43556e-91
-4.80995e-91
1.83138e-89
-8.10335e-89
1.21419e-88
-4.20002e-88
3.28266e-87
3.42522e-87
5.29768e-87
-9.59974e-87
7.58835e-87
-1.2765e-86
5.17209e-86
4.88517e-86
3.94606e-86
9.18577e-87
3.06294e-86
6.89675e-87
1.14651e-85
1.21425e-85
7.85526e-86
6.72153e-86
5.18691e-86
4.64856e-86
1.39793e-85
5.06382e-86
2.10122e-85
1.24241e-85
4.17185e-85
-1.11093e-84
5.00422e-85
-5.3089e-85
4.26317e-84
4.60061e-84
2.97859e-84
1.85951e-84
2.10472e-84
1.2318e-84
4.51263e-84
3.77323e-84
5.41753e-84
-7.38847e-84
1.11219e-83
-2.7853e-83
1.42511e-82
8.34446e-83
2.01719e-82
-3.13774e-82
6.42422e-82
8.19278e-83
5.3088e-82
3.97263e-83
4.48788e-82
2.40628e-83
3.28281e-81
1.39119e-81
6.27044e-81
3.66467e-81
6.84563e-81
4.52292e-81
5.63496e-81
-1.97564e-82
4.54085e-81
2.14145e-82
1.0012e-80
8.43243e-81
8.35901e-81
-8.37619e-82
6.57554e-81