/*--------------------------------*- C++ -*----------------------------------*\
  =========                 |
  \\      /  F ield         | OpenFOAM: The Open Source CFD Toolbox
   \\    /   O peration     | Website:  https://openfoam.org
    \\  /    A nd           | Version:  7
     \\/     M anipulation  |
\*---------------------------------------------------------------------------*/
FoamFile
{
    version     2.0;
    format      ascii;
    class       volScalarField;
    location    "0.65";
    object      T;
}
// * * * * * * * * * * * * * * * * * * * * * * * * * * * * * * * * * * * * * //

dimensions      [0 0 0 1 0 0 0];

internalField   nonuniform List<scalar> 
10000
(
0.5
0.0669146
-0.0353169
-0.0277115
-0.00789976
0.00112931
0.00220711
0.000963794
3.88563e-05
-0.000206219
-0.000130475
-2.60559e-05
1.76156e-05
1.74837e-05
6.08561e-06
-9.06071e-07
-2.20759e-06
-1.13469e-06
-1.06163e-07
2.47859e-07
1.87024e-07
4.9395e-08
-2.13888e-08
-2.77866e-08
-1.17496e-08
4.15032e-10
3.66278e-09
2.25286e-09
3.96249e-10
-4.00521e-10
-3.77216e-10
-1.28514e-10
2.71581e-11
5.5724e-11
2.84621e-11
2.1864e-12
-6.8708e-12
-4.91297e-12
-8.90309e-13
1.12438e-12
1.12851e-12
3.79653e-13
-2.41033e-13
-4.92577e-13
-4.70569e-13
-3.25758e-13
-1.57846e-13
-1.61294e-14
7.79716e-14
1.19431e-13
1.16272e-13
8.54367e-14
4.58787e-14
1.20536e-14
-9.13503e-15
-1.7572e-14
-1.70336e-14
-1.21768e-14
-6.62076e-15
-2.31707e-15
1.97773e-16
1.21241e-15
1.29766e-15
9.71916e-16
5.72282e-16
2.57593e-16
6.60135e-17
-2.37828e-17
-4.98172e-17
-4.5022e-17
-3.05289e-17
-1.67986e-17
-7.30968e-18
-2.02505e-18
3.06637e-19
9.78702e-19
9.1142e-19
6.25211e-19
3.53253e-19
1.65764e-19
5.97831e-20
1.01368e-20
-7.71177e-21
-1.07195e-20
-8.42606e-21
-5.25845e-21
-2.78284e-21
-1.24772e-21
-4.41522e-22
-8.37834e-23
4.05253e-23
6.24716e-23
4.95896e-23
3.11009e-23
1.67096e-23
7.80017e-24
3.07038e-24
8.91495e-25
6.03514e-26
-2.39311e-25
0.933085
0.5
0.14482
-0.0139075
-0.0411718
-0.0230289
-0.00507433
0.00215701
0.00250723
0.00101071
-9.38734e-08
-0.000255324
-0.000158213
-3.18213e-05
2.20241e-05
2.24005e-05
8.17946e-06
-9.48178e-07
-2.86443e-06
-1.56602e-06
-2.00131e-07
3.13491e-07
2.58847e-07
7.77035e-08
-2.39625e-08
-3.79444e-08
-1.77304e-08
-5.20341e-10
4.83202e-09
3.30972e-09
7.47267e-10
-4.8491e-10
-5.38912e-10
-2.10718e-10
2.0855e-11
7.56501e-11
4.27629e-11
4.89981e-12
-9.82275e-12
-7.61947e-12
-1.21633e-12
2.63704e-12
3.21081e-12
2.10422e-12
7.41656e-13
-2.52769e-13
-7.80548e-13
-9.2696e-13
-8.08705e-13
-5.44701e-13
-2.48191e-13
-6.86647e-15
1.35432e-13
1.79691e-13
1.55904e-13
1.01869e-13
4.7424e-14
8.30543e-15
-1.22084e-14
-1.81344e-14
-1.57366e-14
-1.03527e-14
-5.2303e-15
-1.68691e-15
1.94225e-16
8.71421e-16
8.83826e-16
6.38569e-16
3.67569e-16
1.6546e-16
4.67541e-17
-7.92102e-18
-2.4363e-17
-2.2889e-17
-1.57879e-17
-8.88879e-18
-4.07785e-18
-1.35616e-18
-1.03314e-19
3.1646e-19
3.52468e-19
2.59598e-19
1.5505e-19
7.80854e-20
3.22804e-20
9.34359e-21
-5.41325e-23
-2.72091e-21
-2.65984e-21
-1.84378e-21
-1.06193e-21
-5.26078e-22
-2.20563e-22
-7.09027e-23
-9.11684e-24
1.01492e-23
1.2158e-23
8.97144e-24
5.40705e-24
2.49956e-24
1.03532
0.85518
0.5
0.182448
0.00830364
-0.0419281
-0.032441
-0.0120093
3.84408e-05
0.00307766
0.00201936
0.000522644
-0.000189734
-0.000261936
-0.000118925
-6.07707e-06
2.86043e-05
2.02421e-05
5.19525e-06
-2.29056e-06
-2.95623e-06
-1.27806e-06
8.46553e-09
3.71768e-07
2.40892e-07
5.03709e-08
-3.68801e-08
-3.89005e-08
-1.47958e-08
1.67178e-09
5.45504e-09
3.10488e-09
4.36414e-10
-6.31575e-10
-5.46361e-10
-1.729e-10
4.79767e-11
8.14731e-11
3.6515e-11
-3.63645e-12
-1.60846e-11
-1.08247e-11
-1.91498e-12
3.74121e-12
5.43413e-12
4.72977e-12
3.09855e-12
1.37632e-12
-2.67627e-14
-9.16643e-13
-1.25645e-12
-1.15122e-12
-7.94386e-13
-3.84756e-13
-5.99807e-14
1.2587e-13
1.85364e-13
1.63731e-13
1.08639e-13
5.35656e-14
1.43393e-14
-6.5531e-15
-1.35011e-14
-1.25715e-14
-8.67083e-15
-4.70179e-15
-1.85174e-15
-2.5588e-16
4.05292e-16
5.29149e-16
4.21941e-16
2.63455e-16
1.33138e-16
5.05703e-17
8.37072e-18
-7.9495e-18
-1.09368e-17
-8.70459e-18
-5.45322e-18
-2.8386e-18
-1.19704e-18
-3.43331e-19
1.57129e-20
1.18228e-19
1.13399e-19
7.82315e-20
4.47079e-20
2.17243e-20
8.68298e-21
2.40289e-21
-7.30771e-23
-7.36003e-22
-6.95263e-22
-4.73427e-22
-2.69721e-22
-1.3304e-22
-5.61135e-23
-1.86381e-23
-3.26461e-24
2.96761e-24
1.02771
1.01391
0.817552
0.5
0.206389
0.0268058
-0.0388677
-0.0384381
-0.0184166
-0.00302402
0.00284105
0.00282245
0.00118552
4.2633e-05
-0.000296282
-0.000211922
-6.02234e-05
1.88442e-05
2.95095e-05
1.43558e-05
1.17969e-06
-3.31264e-06
-2.541e-06
-7.3481e-07
2.46588e-07
3.7721e-07
1.7883e-07
8.57328e-09
-4.67549e-08
-3.36147e-08
-8.56675e-09
4.24307e-09
5.36501e-09
2.31217e-09
-5.54532e-11
-7.22503e-10
-4.59068e-10
-8.42752e-11
8.41385e-11
7.9901e-11
2.24445e-11
-1.70206e-11
-2.60773e-11
-1.81222e-11
-6.83935e-12
1.46799e-12
5.80352e-12
7.03882e-12
6.22112e-12
4.26776e-12
2.00927e-12
1.15455e-13
-1.0423e-12
-1.432e-12
-1.26498e-12
-8.35979e-13
-3.905e-13
-6.48975e-14
1.07583e-13
1.57219e-13
1.35762e-13
8.86225e-14
4.39006e-14
1.31262e-14
-2.97679e-15
-8.48799e-15
-8.21444e-15
-5.78008e-15
-3.23175e-15
-1.38096e-15
-3.23197e-16
1.41859e-16
2.62077e-16
2.27424e-16
1.49967e-16
8.08047e-17
3.47118e-17
9.7362e-18
-1.05404e-18
-4.13358e-18
-3.87367e-18
-2.65205e-18
-1.49786e-18
-7.0792e-19
-2.63247e-19
-5.42602e-20
2.27118e-20
3.80901e-20
3.106e-20
1.97404e-20
1.06239e-20
4.88478e-21
1.82618e-21
4.36811e-22
-7.25582e-23
-1.87525e-22
-1.61041e-22
-1.04809e-22
-5.81979e-23
-2.39155e-23
1.0079
1.04117
0.991696
0.793611
0.5
0.223365
0.042154
-0.0343031
-0.0421139
-0.0239644
-0.00647534
0.00197761
0.00332499
0.00186777
0.000400612
-0.000245072
-0.000285991
-0.000129611
-8.12739e-06
3.15022e-05
2.39228e-05
7.25577e-06
-1.97863e-06
-3.44893e-06
-1.76137e-06
-1.8454e-07
3.91239e-07
3.18272e-07
9.93706e-08
-2.70432e-08
-4.76354e-08
-2.40393e-08
-2.00802e-09
5.81081e-09
4.50236e-09
1.28561e-09
-4.82128e-10
-6.98981e-10
-3.07523e-10
2.25389e-11
1.22272e-10
8.11823e-11
1.37688e-11
-2.65741e-11
-3.64857e-11
-2.96933e-11
-1.78251e-11
-6.59167e-12
1.87936e-12
6.87612e-12
8.44474e-12
7.34074e-12
4.80019e-12
2.07111e-12
1.42307e-15
-1.10455e-12
-1.37213e-12
-1.12824e-12
-6.99989e-13
-3.07118e-13
-4.46214e-14
8.28419e-14
1.14021e-13
9.49628e-14
6.04664e-14
2.96802e-14
9.30168e-15
-1.10402e-15
-4.67707e-15
-4.65134e-15
-3.30978e-15
-1.88407e-15
-8.44776e-16
-2.44396e-16
2.91885e-17
1.11806e-16
1.06391e-16
7.35915e-17
4.15749e-17
1.92723e-17
6.64881e-18
7.9741e-19
-1.22169e-18
-1.46849e-18
-1.10609e-18
-6.6992e-19
-3.42611e-19
-1.45445e-19
-4.53337e-20
-3.27947e-21
9.54808e-21
1.02484e-20
7.3443e-21
4.32236e-21
2.18738e-21
9.45156e-22
3.23985e-22
5.95596e-23
-2.74635e-23
-4.82573e-23
0.998871
1.02303
1.04193
0.973194
0.776635
0.5
0.236308
0.0551561
-0.0291433
-0.0442026
-0.0286476
-0.0100134
0.000663016
0.00351519
0.00249279
0.000838178
-0.000110139
-0.000325109
-0.00020245
-4.98925e-05
2.37007e-05
3.12705e-05
1.49634e-05
1.26021e-06
-3.52123e-06
-2.80623e-06
-8.96015e-07
2.13494e-07
4.11961e-07
2.18729e-07
2.69771e-08
-4.67834e-08
-3.99529e-08
-1.32152e-08
2.97185e-09
5.96642e-09
3.13262e-09
3.07386e-10
-7.43828e-10
-5.84316e-10
-1.39693e-10
1.23173e-10
1.64061e-10
9.91939e-11
2.52694e-11
-2.1091e-11
-3.99753e-11
-4.11978e-11
-3.27854e-11
-2.00911e-11
-7.23315e-12
2.65961e-12
8.02427e-12
9.07084e-12
7.23777e-12
4.28823e-12
1.58347e-12
-2.07237e-13
-1.0165e-12
-1.11319e-12
-8.46655e-13
-4.92017e-13
-2.01438e-13
-2.29243e-14
5.66116e-14
7.24178e-14
5.80654e-14
3.60477e-14
1.7489e-14
5.63952e-15
-2.7273e-16
-2.30128e-15
-2.3494e-15
-1.68743e-15
-9.73837e-16
-4.52144e-16
-1.48283e-16
-6.03438e-18
4.14638e-17
4.43833e-17
3.22517e-17
1.89879e-17
9.31523e-18
3.62614e-18
8.44508e-19
-2.31939e-19
-4.78924e-19
-4.07633e-19
-2.65009e-19
-1.44754e-19
-6.71935e-20
-2.51884e-20
-5.89991e-21
1.205e-21
2.78299e-21
2.36538e-21
1.53251e-21
8.41981e-22
4.0459e-22
1.26329e-22
0.997793
1.00507
1.03244
1.03887
0.957846
0.763692
0.5
0.246668
0.0663827
-0.0238073
-0.0451887
-0.0325522
-0.0134733
-0.000959178
0.00341734
0.00301639
0.00131432
9.733e-05
-0.000320961
-0.000268331
-0.000102053
5.40097e-06
3.42592e-05
2.29965e-05
6.2179e-06
-2.43292e-06
-3.56994e-06
-1.78399e-06
-1.83405e-07
4.05353e-07
3.37e-07
1.12393e-07
-2.33301e-08
-4.98946e-08
-2.7376e-08
-3.80748e-09
5.62234e-09
4.95697e-09
1.62221e-09
-4.65912e-10
-8.60782e-10
-4.55128e-10
-1.46221e-11
1.92034e-10
2.0631e-10
1.40074e-10
6.55128e-11
8.23399e-12
-2.81187e-11
-4.51921e-11
-4.5942e-11
-3.53065e-11
-1.97816e-11
-5.37674e-12
4.27054e-12
8.38611e-12
8.25026e-12
5.90442e-12
3.11996e-12
9.34188e-13
-3.2907e-13
-7.99447e-13
-7.78558e-13
-5.50276e-13
-3.00654e-13
-1.14901e-13
-9.03857e-15
3.44149e-14
4.1047e-14
3.17706e-14
1.92767e-14
9.25569e-15
3.05441e-15
1.95516e-17
-1.02355e-15
-1.07778e-15
-7.82153e-16
-4.57139e-16
-2.18384e-16
-7.8156e-17
-1.09776e-17
1.31861e-17
1.67352e-17
1.28637e-17
7.88156e-18
4.0529e-18
1.71522e-18
5.19788e-19
1.81722e-20
-1.3114e-19
-1.34158e-19
-9.45972e-20
-5.4992e-20
-2.73869e-20
-1.15007e-20
-3.67699e-21
-4.41534e-22
5.62548e-22
6.54923e-22
4.7634e-22
0.999036
0.997843
1.01201
1.03844
1.0343
0.944844
0.753332
0.5
0.255249
0.0762288
-0.0184971
-0.0453946
-0.0357829
-0.0167686
-0.00277966
0.00306919
0.00341666
0.00179625
0.000362307
-0.000271062
-0.000319196
-0.000159502
-2.26983e-05
3.14482e-05
3.00039e-05
1.24139e-05
-5.01565e-08
-3.78026e-06
-2.69447e-06
-7.81466e-07
2.58291e-07
4.18749e-07
2.17152e-07
2.59662e-08
-4.74947e-08
-4.09871e-08
-1.40891e-08
2.69877e-09
6.14975e-09
3.35505e-09
2.97743e-10
-9.89224e-10
-9.14849e-10
-4.01022e-10
1.02371e-11
1.99043e-10
2.32916e-10
1.943e-10
1.29883e-10
6.16098e-11
3.24433e-12
-3.53573e-11
-5.07171e-11
-4.67423e-11
-3.19418e-11
-1.50682e-11
-1.96369e-12
5.28002e-12
7.38424e-12
6.32536e-12
4.06315e-12
1.90559e-12
4.26288e-13
-3.23757e-13
-5.43694e-13
-4.78774e-13
-3.1693e-13
-1.63733e-13
-5.86051e-14
-2.52704e-15
1.8788e-14
2.10779e-14
1.58168e-14
9.41109e-15
4.48364e-15
1.51297e-15
8.06319e-17
-4.14744e-16
-4.54557e-16
-3.34154e-16
-1.97853e-16
-9.69185e-17
-3.7072e-17
-7.78595e-18
3.39122e-18
5.7334e-18
4.72118e-18
3.01516e-18
1.61725e-18
7.29739e-19
2.57133e-19
4.59711e-20
-2.71535e-20
-3.92991e-20
-3.07524e-20
-1.90816e-20
-1.01096e-20
-4.6082e-21
-1.75469e-21
-2.14281e-22
0.999961
0.997493
0.999962
1.01842
1.04211
1.02914
0.933617
0.744751
0.5
0.262537
0.0849758
-0.0133115
-0.0450396
-0.0384394
-0.0198576
-0.00471768
0.00251112
0.00368607
0.00225945
0.000669094
-0.000176905
-0.000349474
-0.000217239
-5.89605e-05
2.2113e-05
3.47796e-05
1.91931e-05
3.57793e-06
-3.2318e-06
-3.45352e-06
-1.52334e-06
-4.80487e-08
4.29766e-07
3.22399e-07
9.89328e-08
-2.79756e-08
-4.98841e-08
-2.64749e-08
-3.14097e-09
6.11645e-09
5.35036e-09
1.79893e-09
-6.06064e-10
-1.27277e-09
-9.80755e-10
-4.80355e-10
-9.97817e-11
1.18925e-10
2.19427e-10
2.387e-10
2.0021e-10
1.28169e-10
5.02301e-11
-1.05868e-11
-4.33708e-11
-4.99244e-11
-3.96883e-11
-2.33813e-11
-8.73434e-12
7.63269e-13
4.97811e-12
5.48442e-12
4.15969e-12
2.41537e-12
1.00127e-12
1.39086e-13
-2.45117e-13
-3.25624e-13
-2.63503e-13
-1.64706e-13
-8.09565e-14
-2.72774e-14
-2.54441e-16
9.31196e-15
9.92563e-15
7.2553e-15
4.24867e-15
2.01435e-15
6.95531e-16
6.6287e-17
-1.53716e-16
-1.77782e-16
-1.32862e-16
-7.97802e-17
-3.99957e-17
-1.61419e-17
-4.22908e-18
5.47904e-19
1.78067e-18
1.60459e-18
1.07269e-18
5.98934e-19
2.84927e-19
1.11123e-19
2.93136e-20
-2.07749e-21
-1.00158e-20
-9.12031e-21
-6.11286e-21
-3.10989e-21
1.00021
0.998989
0.996922
1.00302
1.02396
1.0442
1.02381
0.923771
0.737463
0.5
0.268847
0.0928295
-0.00829713
-0.0442768
-0.0406094
-0.0227243
-0.00671456
0.00178129
0.00382595
0.00268654
0.001003
-4.24486e-05
-0.000355818
-0.000270828
-0.000101219
6.15713e-06
3.63676e-05
2.58327e-05
8.25191e-06
-1.8051e-06
-3.89323e-06
-2.32333e-06
-5.09041e-07
3.42755e-07
4.05789e-07
1.88265e-07
1.08176e-08
-5.01669e-08
-3.90498e-08
-1.19825e-08
4.09928e-09
7.17732e-09
4.18693e-09
8.05632e-10
-9.53101e-10
-1.32724e-09
-1.07632e-09
-6.89293e-10
-3.3693e-10
-5.29589e-11
1.47176e-10
2.47874e-10
2.52377e-10
1.89716e-10
1.01651e-10
2.38874e-11
-2.49913e-11
-4.35512e-11
-4.0695e-11
-2.78773e-11
-1.39988e-11
-3.71517e-12
1.8974e-12
3.78494e-12
3.50668e-12
2.39575e-12
1.26673e-12
4.60693e-13
1.78728e-14
-1.54941e-13
-1.74746e-13
-1.31751e-13
-7.83582e-14
-3.68707e-14
-1.17701e-14
2.4538e-16
4.23312e-15
4.32879e-15
3.0967e-15
1.79098e-15
8.47446e-16
2.99706e-16
4.00505e-17
-5.21009e-17
-6.48856e-17
-4.95195e-17
-3.02024e-17
-1.54791e-17
-6.53508e-18
-1.97818e-18
-7.14799e-20
4.9488e-19
5.06437e-19
3.57004e-19
2.07527e-19
1.03401e-19
4.349e-20
1.39566e-20
1.85874e-21
-2.90093e-21
1.00013
1
0.997981
0.997159
1.00648
1.02865
1.04519
1.0185
0.915024
0.731153
0.5
0.274394
0.0999444
-0.00347339
-0.0432147
-0.0423674
-0.025367
-0.00872811
0.000913719
0.00384278
0.00306586
0.00135109
0.000126998
-0.000336704
-0.000316604
-0.000147094
-1.60181e-05
3.41025e-05
3.16251e-05
1.36644e-05
5.30332e-07
-3.87081e-06
-3.07996e-06
-1.0982e-06
1.41179e-07
4.45074e-07
2.82906e-07
6.8282e-08
-3.86742e-08
-4.96662e-08
-2.38294e-08
-1.10309e-09
7.65865e-09
6.94411e-09
3.42345e-09
6.52303e-10
-7.08204e-10
-1.14616e-09
-1.15541e-09
-9.61062e-10
-6.47318e-10
-2.90903e-10
1.66772e-11
2.0771e-10
2.67463e-10
2.28613e-10
1.43825e-10
5.88799e-11
-7.93907e-13
-2.98179e-11
-3.51649e-11
-2.768e-11
-1.6495e-11
-6.94944e-12
-9.25246e-13
1.83409e-12
2.42956e-12
1.97258e-12
1.23132e-12
5.96346e-13
1.87781e-13
-1.63258e-14
-8.53691e-14
-8.52801e-14
-6.05924e-14
-3.45269e-14
-1.56465e-14
-4.76842e-15
2.1763e-16
1.78071e-15
1.76272e-15
1.23956e-15
7.10337e-16
3.36331e-16
1.21923e-16
2.05777e-17
-1.60488e-17
-2.21959e-17
-1.73963e-17
-1.07978e-17
-5.65479e-18
-2.48233e-18
-8.3343e-19
-1.17122e-19
1.18714e-19
1.48317e-19
1.11557e-19
6.76431e-20
3.5419e-20
1.28327e-20
1.00003
1.00026
0.999477
0.997178
0.998022
1.01001
1.03255
1.04539
1.01331
0.90717
0.725606
0.5
0.279329
0.106439
0.00115474
-0.041932
-0.0437761
-0.0277924
-0.0107283
-6.2262e-05
0.00374582
0.00339021
0.00170247
0.000325544
-0.000292008
-0.000351728
-0.000194215
-4.3651e-05
2.76072e-05
3.59344e-05
1.94425e-05
3.72358e-06
-3.28063e-06
-3.68805e-06
-1.77133e-06
-1.79017e-07
4.21204e-07
3.70025e-07
1.41832e-07
-1.26157e-08
-5.54801e-08
-3.80888e-08
-1.086e-08
4.71222e-09
8.31941e-09
6.30049e-09
3.41129e-09
1.33066e-09
5.48614e-11
-7.28e-10
-1.14204e-09
-1.19637e-09
-9.48722e-10
-5.43997e-10
-1.49076e-10
1.22608e-10
2.39833e-10
2.35077e-10
1.66384e-10
8.53947e-11
2.24914e-11
-1.30443e-11
-2.53469e-11
-2.35407e-11
-1.60763e-11
-8.38679e-12
-2.86111e-12
1.60588e-13
1.29616e-12
1.36056e-12
9.94679e-13
5.73703e-13
2.55608e-13
6.81815e-14
-1.74797e-14
-4.21145e-14
-3.8314e-14
-2.58963e-14
-1.42257e-14
-6.24465e-15
-1.83271e-15
1.16277e-16
6.98395e-16
6.74735e-16
4.68327e-16
2.66715e-16
1.26658e-16
4.70823e-17
9.46248e-18
-4.41455e-18
-7.13589e-18
-5.78457e-18
-3.66264e-18
-1.95988e-18
-8.90693e-19
-3.23633e-19
-6.88415e-20
2.20423e-20
3.98195e-20
3.30276e-20
0.999982
1.00016
1.00019
0.998814
0.996675
0.999337
1.01347
1.03578
1.04504
1.0083
0.900056
0.720671
0.5
0.283765
0.112406
0.00559006
-0.0404869
-0.0448875
-0.0300111
-0.0126941
-0.0011218
0.00354557
0.00365566
0.00204819
0.000547226
-0.000222631
-0.000374148
-0.000240368
-7.5744e-05
1.67655e-05
3.82311e-05
2.51857e-05
7.65592e-06
-2.06004e-06
-4.04911e-06
-2.4725e-06
-6.1012e-07
3.19854e-07
4.3643e-07
2.27687e-07
3.11508e-08
-5.18096e-08
-5.2054e-08
-2.52288e-08
-3.64119e-09
5.64584e-09
7.03595e-09
5.69781e-09
4.06825e-09
2.583e-09
1.1578e-09
-1.10478e-10
-9.7984e-10
-1.30774e-09
-1.16161e-09
-7.54234e-10
-3.13249e-10
1.29484e-11
1.78206e-10
2.10121e-10
1.65859e-10
9.80622e-11
3.94319e-11
2.33792e-12
-1.42851e-11
-1.71965e-11
-1.34885e-11
-8.14956e-12
-3.72015e-12
-9.46814e-13
3.74562e-13
7.58435e-13
6.8066e-13
4.56602e-13
2.45508e-13
1.00921e-13
2.20063e-14
-1.11143e-14
-1.89482e-14
-1.60075e-14
-1.03733e-14
-5.52405e-15
-2.36196e-15
-6.739e-16
4.92119e-17
2.56976e-16
2.4415e-16
1.67903e-16
9.52853e-17
4.5473e-17
1.73338e-17
3.99383e-18
-1.03613e-18
-2.15835e-18
-1.82641e-18
-1.18311e-18
-6.47108e-19
-3.03352e-19
-1.19044e-19
-1.6437e-20
0.999983
1.00003
1.00026
0.999957
0.998132
0.996485
1.00096
1.01677
1.03844
1.04428
1.00347
0.893561
0.716235
0.5
0.287787
0.11792
0.00983944
-0.0389223
-0.0457452
-0.0320359
-0.0146108
-0.00224409
0.00325288
0.00386074
0.00238115
0.000786327
-0.00013018
-0.000382519
-0.00028358
-0.000111168
1.68184e-06
3.81083e-05
3.04963e-05
1.21573e-05
-1.90041e-07
-4.0793e-06
-3.1406e-06
-1.13554e-06
1.3064e-07
4.67978e-07
3.19983e-07
9.55159e-08
-3.17537e-08
-5.93681e-08
-4.06626e-08
-1.68906e-08
-2.76708e-09
2.84837e-09
4.61779e-09
5.17994e-09
5.02076e-09
4.00982e-09
2.3533e-09
6.14783e-10
-6.66104e-10
-1.25403e-09
-1.23729e-09
-8.77504e-10
-4.39907e-10
-9.44474e-11
1.00355e-10
1.63466e-10
1.45748e-10
9.63622e-11
4.75225e-11
1.33371e-11
-4.58529e-12
-1.05188e-11
-9.86188e-12
-6.7858e-12
-3.67052e-12
-1.45228e-12
-2.19433e-13
2.89569e-13
3.87263e-13
3.09653e-13
1.93234e-13
9.7554e-14
3.70664e-14
6.21993e-15
-5.69278e-15
-7.8809e-15
-6.27167e-15
-3.92251e-15
-2.03502e-15
-8.52009e-16
-2.38664e-16
1.75952e-17
8.91655e-17
8.39077e-17
5.73755e-17
3.25255e-17
1.56251e-17
6.1058e-18
1.57063e-18
-1.78721e-19
-6.1351e-19
-5.48812e-19
-3.66181e-19
-1.83323e-19
0.999994
0.999978
1.00012
1.0003
0.999599
0.997507
0.996583
1.00278
1.01986
1.04061
1.04321
0.998845
0.887594
0.712213
0.5
0.291459
0.123039
0.0139117
-0.0372711
-0.0463857
-0.0338802
-0.0164687
-0.00341188
0.00287833
0.00400571
0.00269582
0.00103755
-1.67195e-05
-0.000376095
-0.000322165
-0.000148744
-1.73625e-05
3.52856e-05
3.5003e-05
1.70238e-05
2.30899e-06
-3.71322e-06
-3.71432e-06
-1.73296e-06
-1.54954e-07
4.46999e-07
4.07239e-07
1.79434e-07
1.11767e-08
-5.08196e-08
-4.89283e-08
-2.9637e-08
-1.47432e-08
-6.80191e-09
-2.13019e-09
1.66682e-09
4.57905e-09
5.82105e-09
5.21027e-09
3.38854e-09
1.32007e-09
-2.54101e-10
-1.05019e-09
-1.17042e-09
-8.96877e-10
-5.06611e-10
-1.76906e-10
2.52736e-11
1.08522e-10
1.1386e-10
8.36593e-11
4.72442e-11
1.89554e-11
2.27717e-12
-4.88456e-12
-6.22981e-12
-4.95038e-12
-3.05643e-12
-1.48901e-12
-4.99222e-13
-6.32229e-15
1.66711e-13
1.77701e-13
1.29869e-13
7.61804e-14
3.63262e-14
1.27709e-14
1.4708e-15
-2.54796e-15
-3.06162e-15
-2.32042e-15
-1.4086e-15
-7.15152e-16
-2.94634e-16
-8.18249e-17
5.36867e-18
2.92964e-17
2.74971e-17
1.87581e-17
1.06458e-17
5.15531e-18
2.06413e-18
5.8064e-19
1.79502e-21
-2.0045e-19
1
0.999978
1.00001
1.00021
1.00025
0.999162
0.996984
0.996931
1.00472
1.02272
1.04237
1.04193
0.99441
0.88208
0.708541
0.5
0.294834
0.127814
0.0178165
-0.035558
-0.0468395
-0.0355575
-0.0182615
-0.00461091
0.00243196
0.00409206
0.00298801
0.00129613
0.000115423
-0.000354624
-0.000354732
-0.000187305
-3.99535e-05
2.96032e-05
3.83775e-05
2.20352e-05
5.38572e-06
-2.90245e-06
-4.13239e-06
-2.37386e-06
-5.43196e-07
3.50804e-07
4.68155e-07
2.71732e-07
7.65424e-08
-1.95112e-08
-3.99195e-08
-3.19003e-08
-2.25794e-08
-1.74768e-08
-1.33499e-08
-7.74877e-09
-1.36061e-09
3.73212e-09
6.13741e-09
5.90203e-09
4.07248e-09
1.88079e-09
1.71603e-10
-7.5268e-10
-9.93076e-10
-8.23514e-10
-5.09483e-10
-2.22536e-10
-3.31582e-11
5.73387e-11
7.8813e-11
6.51044e-11
4.10263e-11
1.98508e-11
6.01581e-12
-9.40907e-13
-3.25796e-12
-3.17003e-12
-2.22693e-12
-1.25131e-12
-5.49599e-13
-1.4916e-13
3.00171e-14
8.13554e-14
7.46937e-14
5.07631e-14
2.82227e-14
1.27764e-14
4.15853e-15
2.47602e-16
-1.03312e-15
-1.12006e-15
-8.15506e-16
-4.82838e-16
-2.40862e-16
-9.80951e-17
-2.72585e-17
1.34899e-18
9.14442e-18
8.62102e-18
5.88619e-18
3.34996e-18
1.65216e-18
5.18563e-19
1
0.999992
0.999971
1.00006
1.00029
1.00011
0.998686
0.996583
0.997489
1.00671
1.02537
1.04378
1.04049
0.990161
0.876961
0.705166
0.5
0.297951
0.132283
0.0215636
-0.0338022
-0.0471324
-0.0370806
-0.0199854
-0.00582946
0.00192307
0.00412207
0.00325471
0.00155785
0.000263801
-0.000318255
-0.000380178
-0.000225741
-6.55842e-05
2.10095e-05
4.03429e-05
2.69684e-05
8.9675e-06
-1.60992e-06
-4.32836e-06
-3.01662e-06
-1.03066e-06
1.56821e-07
4.72296e-07
3.47028e-07
1.49536e-07
3.0575e-08
-9.21598e-09
-1.427e-08
-1.53224e-08
-1.95137e-08
-2.24225e-08
-1.99992e-08
-1.27435e-08
-4.09207e-09
2.60972e-09
5.85028e-09
5.9807e-09
4.31862e-09
2.21353e-09
5.29273e-10
-4.3258e-10
-7.57061e-10
-6.87522e-10
-4.60411e-10
-2.31227e-10
-6.88803e-11
1.75465e-11
4.73522e-11
4.56033e-11
3.18977e-11
1.75622e-11
7.17462e-12
1.29831e-12
-1.20092e-12
-1.74629e-12
-1.43491e-12
-9.13205e-13
-4.71193e-13
-1.85862e-13
-3.70502e-14
2.25998e-14
3.53782e-14
2.91547e-14
1.86569e-14
9.89773e-15
4.27335e-15
1.28845e-15
8.28052e-19
-3.87248e-16
-3.88433e-16
-2.73603e-16
-1.58668e-16
-7.80519e-17
-3.15552e-17
-8.84551e-18
2.36254e-19
2.71931e-18
2.59128e-18
1.69762e-18
1
1
0.99998
0.999981
1.00013
1.00033
0.999903
0.998204
0.996314
0.998219
1.00873
1.02779
1.04489
1.03892
0.986088
0.872186
0.702049
0.5
0.300845
0.136483
0.0251626
-0.0320184
-0.0472861
-0.0384617
-0.0216386
-0.00705794
0.0013602
0.00409858
0.0034938
0.00181902
0.000425954
-0.00026744
-0.000397672
-0.00026303
-9.36929e-05
9.54145e-06
4.06719e-05
3.16021e-05
1.29639e-05
1.92667e-07
-4.22499e-06
-3.59557e-06
-1.5892e-06
-1.4209e-07
3.91565e-07
3.70841e-07
1.9945e-07
7.79967e-08
3.28408e-08
2.30865e-08
1.41692e-08
-2.2446e-09
-1.87215e-08
-2.69641e-08
-2.49577e-08
-1.62805e-08
-6.23148e-09
1.32835e-09
5.04352e-09
5.50986e-09
4.14936e-09
2.2952e-09
7.66063e-10
-1.50502e-10
-5.14303e-10
-5.24949e-10
-3.79691e-10
-2.11339e-10
-8.28924e-11
-8.25481e-12
2.3176e-11
2.85818e-11
2.24448e-11
1.37533e-11
6.6503e-12
2.19725e-12
-6.12381e-15
-7.71103e-13
-8.113e-13
-5.90545e-13
-3.45826e-13
-1.64743e-13
-5.78056e-14
-6.4974e-15
1.17552e-14
1.4075e-14
1.06768e-14
6.49456e-15
3.30654e-15
1.36735e-15
3.8226e-16
-2.34507e-17
-1.35939e-16
-1.28392e-16
-8.80012e-17
-5.01724e-17
-2.44176e-17
-9.82869e-18
-2.86533e-18
5.20763e-19
1
1
0.999995
0.99997
1.00001
1.0002
1.00032
0.999638
0.997741
0.996174
0.999086
1.01073
1.03001
1.04575
1.03727
0.982184
0.867717
0.699155
0.5
0.303542
0.14044
0.0286225
-0.0302183
-0.0473191
-0.0397121
-0.0232206
-0.00828853
0.000751046
0.00402473
0.00370393
0.00207652
0.000599479
-0.000202861
-0.000406625
-0.00029825
-0.000123694
-4.69804e-06
3.91751e-05
3.57083e-05
1.72561e-05
2.51394e-06
-3.7401e-06
-4.017e-06
-2.15157e-06
-5.16405e-07
2.22687e-07
3.18048e-07
1.90806e-07
8.68923e-08
5.74685e-08
6.26412e-08
6.02016e-08
3.80464e-08
6.82652e-09
-1.83102e-08
-2.9383e-08
-2.73219e-08
-1.8001e-08
-7.59118e-09
8.26636e-11
3.92616e-09
4.66214e-09
3.66699e-09
2.15849e-09
8.6742e-10
5.7619e-11
-3.03163e-10
-3.66817e-10
-2.88252e-10
-1.74784e-10
-8.05442e-11
-2.13384e-11
7.12695e-12
1.5672e-11
1.43163e-11
9.72893e-12
5.31126e-12
2.24047e-12
5.36441e-13
-1.98277e-13
-3.87953e-13
-3.38692e-13
-2.24384e-13
-1.22184e-13
-5.38874e-14
-1.65336e-14
8.16342e-18
5.13881e-15
5.20777e-15
3.6983e-15
2.15447e-15
1.05791e-15
4.20745e-16
1.09265e-16
-1.37233e-17
-4.50999e-17
-4.0633e-17
-2.72266e-17
-1.54162e-17
-6.19423e-18
1
1
1
0.999986
0.999968
1.00005
1.00027
1.00027
0.999331
0.997313
0.996157
1.00006
1.01269
1.03204
1.04639
1.03556
0.978436
0.863517
0.696458
0.5
0.306067
0.144179
0.0319521
-0.0284107
-0.0472471
-0.0408424
-0.0247318
-0.00951485
0.000102556
0.00390382
0.00388438
0.00232766
0.000782083
-0.000125365
-0.000406656
-0.000330588
-0.000154993
-2.15564e-05
3.56876e-05
3.90364e-05
2.16728e-05
5.31193e-06
-2.81563e-06
-4.1776e-06
-2.61407e-06
-8.87268e-07
1.04287e-08
1.99822e-07
1.07579e-07
2.41036e-08
2.58253e-08
6.9963e-08
9.9187e-08
9.04854e-08
5.40897e-08
1.25079e-08
-1.70811e-08
-2.90898e-08
-2.70283e-08
-1.79685e-08
-8.12181e-09
-9.42542e-10
2.73581e-09
3.64499e-09
3.009e-09
1.8711e-09
8.51191e-10
1.82392e-10
-1.43308e-10
-2.33248e-10
-2.02312e-10
-1.32782e-10
-6.85556e-11
-2.50194e-11
-1.87283e-12
7.04292e-12
8.20882e-12
6.26711e-12
3.79536e-12
1.85857e-12
6.69114e-13
7.92664e-14
-1.38057e-13
-1.68872e-13
-1.29798e-13
-7.96172e-14
-4.06107e-14
-1.65921e-14
-4.32418e-15
6.93403e-16
2.00902e-15
1.8125e-15
1.21966e-15
6.84636e-16
3.25668e-16
1.25081e-16
3.02767e-17
-5.78148e-18
-1.41467e-17
-1.24549e-17
1
1
1
0.999999
0.999976
0.999976
1.0001
1.00032
1.00018
0.998997
0.996934
0.996254
1.00112
1.01461
1.03388
1.04684
1.0338
0.974837
0.85956
0.693933
0.5
0.308436
0.147722
0.0351593
-0.0266028
-0.0470838
-0.0418621
-0.0261733
-0.0107318
-0.000579065
0.00373919
0.0040349
0.00257022
0.000971617
-3.58992e-05
-0.000397546
-0.000359317
-0.000186984
-4.08234e-05
3.00768e-05
4.13087e-05
2.59666e-05
8.45252e-06
-1.46915e-06
-4.01309e-06
-2.87126e-06
-1.14107e-06
-1.47089e-07
8.37424e-08
-1.94565e-08
-1.13709e-07
-8.96085e-08
6.70944e-09
9.43097e-08
1.27902e-07
1.08402e-07
6.18823e-08
1.56343e-08
-1.47134e-08
-2.64136e-08
-2.46054e-08
-1.65428e-08
-7.91008e-09
-1.63427e-09
1.66438e-09
2.63979e-09
2.30658e-09
1.51037e-09
7.5355e-10
2.34283e-10
-3.77406e-11
-1.3274e-10
-1.3131e-10
-9.34395e-11
-5.28498e-11
-2.30191e-11
-5.75516e-12
1.99154e-12
4.12228e-12
3.67366e-12
2.46651e-12
1.35222e-12
5.93382e-13
1.73594e-13
-1.25132e-14
-6.84658e-14
-6.63007e-14
-4.6326e-14
-2.66186e-14
-1.27857e-14
-4.83283e-15
-1.01745e-15
4.21403e-16
7.2327e-16
5.98374e-16
3.85031e-16
2.09336e-16
9.67928e-17
3.66341e-17
3.27038e-18
1
1
1
1
0.999993
0.999969
0.999995
1.00016
1.00035
1.00004
0.998649
0.99661
0.996454
1.00224
1.01647
1.03556
1.04713
1.03202
0.971377
0.855821
0.691564
0.5
0.310668
0.151087
0.0382517
-0.0248
-0.0468406
-0.0427801
-0.0275469
-0.0119351
-0.00128829
0.00353417
0.0041556
0.00280236
0.00116608
6.45271e-05
-0.000379202
-0.000383762
-0.000219012
-6.2189e-05
2.2289e-05
4.22583e-05
2.98254e-05
1.16868e-05
1.54627e-07
-3.5654e-06
-2.88225e-06
-1.18123e-06
-1.27808e-07
8.77266e-08
-1.00086e-07
-2.76464e-07
-2.78602e-07
-1.465e-07
1.12845e-08
1.14744e-07
1.41968e-07
1.13287e-07
6.26425e-08
1.6886e-08
-1.15243e-08
-2.21913e-08
-2.08593e-08
-1.42261e-08
-7.14088e-09
-1.97007e-09
8.2321e-10
1.76881e-09
1.65798e-09
1.14307e-09
6.14397e-10
2.33823e-10
2.14649e-11
-6.47915e-11
-7.84481e-11
-6.11557e-11
-3.75261e-11
-1.84408e-11
-6.49201e-12
-5.05588e-13
1.68231e-12
1.93731e-12
1.46565e-12
8.88559e-13
4.44547e-13
1.73222e-13
3.67009e-14
-1.69511e-14
-2.87521e-14
-2.40195e-14
-1.55607e-14
-8.44656e-15
-3.8353e-15
-1.33691e-15
-2.06553e-16
1.84952e-16
2.43863e-16
1.88573e-16
1.17526e-16
5.36172e-17
1
1
1
1
1
0.999985
0.999966
1.00002
1.00022
1.00036
0.999873
0.998298
0.996344
0.996747
1.00341
1.01826
1.03708
1.04729
1.03022
0.968048
0.852278
0.689332
0.5
0.312776
0.154289
0.0412361
-0.0230068
-0.0465277
-0.0436044
-0.0288544
-0.0131217
-0.00202019
0.00329197
0.00424691
0.00302256
0.00136363
0.000174853
-0.000351639
-0.000403288
-0.000250335
-8.51754e-05
1.24418e-05
4.17249e-05
3.29484e-05
1.46875e-05
1.7738e-06
-3.03224e-06
-2.74393e-06
-1.00589e-06
1.48681e-07
3.36664e-07
-3.09277e-09
-3.57774e-07
-4.76315e-07
-3.67488e-07
-1.60117e-07
2.33604e-08
1.23493e-07
1.40931e-07
1.07485e-07
5.82878e-08
1.67495e-08
-8.09513e-09
-1.7366e-08
-1.66018e-08
-1.15219e-08
-6.04065e-09
-2.00117e-09
2.43995e-10
1.08951e-09
1.11949e-09
8.14884e-10
4.67051e-10
2.03009e-10
4.6969e-11
-2.37086e-11
-4.25895e-11
-3.72384e-11
-2.47641e-11
-1.33756e-11
-5.6527e-12
-1.42081e-12
4.02327e-13
8.89911e-13
7.93548e-13
5.33835e-13
2.9669e-13
1.3582e-13
4.60528e-14
4.82834e-15
-9.24448e-15
-1.08331e-14
-8.14721e-15
-4.95895e-15
-2.5592e-15
-1.10164e-15
-3.52341e-16
-3.15377e-17
6.8684e-17
8.18179e-17
1
1
1
1
1
0.999999
0.999977
0.999969
1.00006
1.00027
1.00034
0.999674
0.997952
0.996139
0.997122
1.00461
1.01999
1.03846
1.04732
1.02841
0.964841
0.848913
0.687224
0.5
0.314771
0.157342
0.0441189
-0.0212264
-0.0461537
-0.0443425
-0.0300981
-0.0142887
-0.0027704
0.0030157
0.00430944
0.00322954
0.00156247
0.000293921
-0.00031503
-0.000417331
-0.000280137
-0.000109092
9.25544e-07
3.97952e-05
3.51922e-05
1.71691e-05
3.04033e-06
-2.75308e-06
-2.72682e-06
-7.76274e-07
6.41187e-07
8.89761e-07
3.90767e-07
-2.23662e-07
-5.69965e-07
-5.83554e-07
-3.89209e-07
-1.47938e-07
3.30518e-08
1.19552e-07
1.28174e-07
9.46124e-08
5.08219e-08
1.55987e-08
-4.96644e-09
-1.27148e-08
-1.2476e-08
-8.83978e-09
-4.82347e-09
-1.81859e-09
-9.90713e-11
6.07092e-10
7.0978e-10
5.48855e-10
3.33653e-10
1.59934e-10
5.14828e-11
-2.01088e-12
-2.0377e-11
-2.10084e-11
-1.52533e-11
-8.94955e-12
-4.2756e-12
-1.49959e-12
-1.57751e-13
3.23634e-13
3.85338e-13
2.93928e-13
1.80266e-13
9.26623e-14
3.87403e-14
1.09878e-14
-6.24021e-16
-3.93042e-15
-3.7659e-15
-2.61391e-15
-1.50914e-15
-7.43759e-16
-3.08495e-16
-5.13387e-17
1
1
1
1
1
1
0.999994
0.99997
0.999978
1.0001
1.00032
1.00029
0.999453
0.997619
0.995994
0.997568
1.00583
1.02164
1.03971
1.04725
1.0266
0.961748
0.845711
0.685229
0.5
0.316664
0.160259
0.0469061
-0.0194615
-0.0457261
-0.045001
-0.0312803
-0.0154342
-0.00353502
0.00270835
0.00434397
0.00342222
0.00176086
0.00042039
-0.000269823
-0.00042554
-0.000307632
-0.000133085
-1.15585e-05
3.69227e-05
3.67455e-05
1.90755e-05
3.702e-06
-3.10047e-06
-3.23037e-06
-8.3029e-07
1.13257e-06
1.66736e-06
1.11697e-06
2.31012e-07
-4.337e-07
-6.85508e-07
-6.0269e-07
-3.64194e-07
-1.24351e-07
3.66253e-08
1.05958e-07
1.08493e-07
7.82939e-08
4.1984e-08
1.37676e-08
-2.47775e-09
-8.729e-09
-8.88815e-09
-6.45189e-09
-3.65515e-09
-1.51992e-09
-2.6124e-10
2.94425e-10
4.21215e-10
3.49811e-10
2.25179e-10
1.16735e-10
4.51958e-11
7.30241e-12
-7.89709e-12
-1.08579e-11
-8.77245e-12
-5.57736e-12
-2.93051e-12
-1.22802e-12
-3.26051e-13
5.59656e-14
1.60773e-13
1.47264e-13
1.00525e-13
5.70518e-14
2.72563e-14
1.03364e-14
2.2612e-15
-7.95148e-16
-1.46187e-15
-1.22763e-15
-8.03526e-16
-3.87034e-16
1
1
1
1
1
1
1
0.999988
0.999965
0.999994
1.00015
1.00035
1.00022
0.999214
0.997304
0.995908
0.998077
1.00706
1.02322
1.04084
1.04708
1.0248
0.958764
0.842658
0.683336
0.5
0.318465
0.16305
0.0496032
-0.0177143
-0.0452516
-0.0455863
-0.0324033
-0.0165565
-0.00431055
0.00237283
0.00435146
0.00359971
0.00195702
0.000552629
-0.000216919
-0.000428008
-0.000332322
-0.000156338
-2.41086e-05
3.39344e-05