/*--------------------------------*- C++ -*----------------------------------*\
  =========                 |
  \\      /  F ield         | OpenFOAM: The Open Source CFD Toolbox
   \\    /   O peration     | Website:  https://openfoam.org
    \\  /    A nd           | Version:  7
     \\/     M anipulation  |
\*---------------------------------------------------------------------------*/
FoamFile
{
    version     2.0;
    format      ascii;
    class       volScalarField;
    location    "0.58";
    object      T;
}
// * * * * * * * * * * * * * * * * * * * * * * * * * * * * * * * * * * * * * //

dimensions      [0 0 0 1 0 0 0];

internalField   nonuniform List<scalar> 
45544
(
0
0
0
0
0
0
0
0
0
0
0
0
0
0
0
0
0
0
0
0
0
0
0
0
0
0
0
0
0
0
0
0
0
0
0
0
0
0
0
0
0
0
0
0
0
0
0
0
0
0
0
0
0
0
0
0
0
0
0
0
0
0
0
0
0
0
0
0
0
0
0
0
0
0
0
0
0
0
0
0
0
0
0
0
0
0
0
0
0
0
0
0
0
0
0
0
0
0
0
0
0
0
0
0
0
0
0
0
0
0
0
0
0
0
0
0
0
0
0
0
0
0
0
0
0
0
0
0
0
0
0
0
0
0
0
0
0
0
0
0
0
0
0
0
0
0
0
0
0
0
0
0
0
0
0
0
0
0
0
0
0
0
0
0
0
0
0
0
0
0
0
0
0
0
0
0
0
0
0
0
0
0
0
0
0
0
0
0
0
0
0
0
0
0
0
0
0
0
0
0
0
0
0
0
0
-5.49095e-38
1.86345e-33
-5.24996e-30
9.1929e-29
-7.01714e-26
-1.09735e-25
-3.3034e-26
5.53259e-26
4.10726e-25
3.63345e-25
4.02093e-25
1.77172e-25
1.44571e-25
3.34367e-25
7.43443e-25
5.62572e-25
-2.97668e-24
-2.2214e-23
-1.26689e-23
2.27747e-22
3.43312e-22
2.68091e-22
9.37087e-22
3.37849e-22
-1.34779e-22
-6.97631e-22
-8.83181e-22
-7.75733e-22
-8.65179e-22
-6.17342e-22
-7.49569e-22
-7.51626e-22
-1.77419e-21
-1.12324e-21
-5.99043e-22
-1.08432e-21
-3.7022e-21
-6.6146e-21
-2.72466e-21
-2.46476e-21
-2.31745e-21
3.50402e-22
3.37092e-21
1.38171e-20
1.91626e-20
1.98835e-20
8.59821e-21
1.04438e-20
2.79185e-21
1.12617e-21
-2.95449e-21
-4.74388e-21
-6.70699e-21
-6.45682e-21
-3.41547e-21
-2.99117e-21
-2.16174e-21
-9.56237e-22
-2.30758e-22
3.66248e-22
4.62934e-22
4.81508e-22
3.20045e-22
2.71517e-22
1.54029e-22
9.97948e-23
5.23651e-23
1.71738e-23
4.76493e-24
-1.8284e-24
-7.51178e-24
-7.21836e-24
-6.52592e-24
-5.14323e-24
-3.57239e-24
-1.74805e-24
-1.25206e-24
-7.01423e-25
-3.14002e-25
-1.81262e-25
-4.42707e-26
-2.21368e-26
-7.88181e-27
1.42423e-26
1.3885e-26
1.14318e-26
8.18094e-27
5.67562e-27
4.02291e-27
2.57189e-27
1.51147e-27
-1.27812e-28
-2.15042e-26
2.18922e-23
0
0
0
0
0
0
0
0
0
0
0
0
0
0
0
0
0
0
0
0
0
0
0
0
0
0
0
0
0
0
0
0
0
0
0
0
0
0
0
0
0
0
0
0
0
0
0
0
0
0
0
0
0
0
0
0
0
0
0
0
0
0
0
0
3.27941e-119
0
-2.79837e-109
3.05974e-111
-1.06378e-107
4.83494e-108
-4.68238e-107
-3.34032e-107
-1.11759e-107
1.69696e-107
-9.90587e-106
3.29508e-105
1.88655e-104
3.24336e-104
2.29796e-104
3.49511e-104
7.38373e-104
8.659e-104
1.22924e-103
-1.37217e-103
3.29145e-102
2.79452e-102
-6.31206e-101
2.48044e-100
4.05036e-99
5.55561e-99
4.13662e-99
5.56803e-99
2.26215e-99
4.77567e-99
-8.10678e-99
8.83552e-99
-7.38138e-97
-7.38499e-97
-4.6968e-97
-4.35941e-97
-1.1329e-96
2.55847e-96
-5.69184e-96
-1.80691e-96
-6.72126e-96
-4.66694e-96
-7.00113e-96
-3.56643e-96
-6.68402e-96
6.48508e-97
-2.4255e-95
-2.25437e-95
-3.64213e-95
-3.21013e-95
-2.34159e-95
-1.95873e-95
-2.74429e-93
4.78412e-94
-3.52647e-91
-3.02708e-91
-3.1385e-91
1.47642e-91
-3.02903e-91
3.06825e-91
-5.16174e-90
4.04424e-90
1.20488e-88
-3.97501e-88
9.87998e-88
1.92964e-88
4.56826e-87
4.46453e-87
4.17181e-85
4.40898e-85
1.18662e-84
1.50196e-84
8.25068e-85
1.17317e-84
-1.08441e-84
5.8934e-84
-3.09006e-84
7.57391e-84
-1.59206e-83
1.25734e-83
-5.84541e-83
1.56654e-83
-7.15541e-83
1.35958e-82
-5.77378e-82
-3.31576e-81
1.64117e-82
-3.04368e-81
2.24805e-81
-8.74338e-81
1.22624e-80
9.03493e-81
1.43253e-80
-1.712e-80
5.2433e-80
-3.22532e-79
-3.01354e-79
3.51405e-78
-6.23719e-79
3.62804e-78
-1.15961e-77
3.5225e-77
-5.70566e-77
2.10016e-77
-6.64221e-77
-4.6936e-77
-4.27823e-77
-1.10635e-76
1.72525e-77
-1.33263e-76
-5.11399e-78
-1.84426e-76
2.16058e-76
-7.14515e-76
3.73893e-76
-5.3283e-76
4.42467e-76
-5.57542e-76
4.37717e-76
-4.11041e-76
7.54773e-76
-1.48111e-75
2.8565e-75
-1.13175e-75
1.12145e-74
6.57592e-75
2.09405e-74
1.12433e-74
1.50261e-74
9.92705e-75
1.06786e-74
6.5516e-75
2.29661e-74
-2.05826e-75
4.16406e-74
2.8617e-74
3.37201e-74
1.69617e-74
2.60023e-74
1.33891e-74
5.50303e-74
1.4085e-73
-8.47272e-75
2.37144e-73
-9.72363e-74
2.95808e-73
-1.31619e-73
2.90496e-73
7.20848e-74
7.21259e-73
1.10135e-72
5.11093e-73
7.0207e-73
7.62251e-73
3.93964e-73
9.17377e-73
1.80514e-73
8.50103e-73
2.55393e-72
6.85481e-73
5.5557e-72
5.39614e-72
3.53468e-72
3.80165e-72
3.29931e-72
-8.27771e-73
6.73794e-72
7.09725e-73
7.66427e-72
3.92195e-72
9.21372e-72
4.70535e-73
1.00167e-71
-7.90716e-72
1.35361e-71
-3.25972e-72
2.30156e-71
-2.00567e-71
2.08324e-71
-8.12745e-72
2.46577e-71
7.93873e-72
1.89755e-71
7.14593e-72
1.52785e-71
3.1316e-72
3.26143e-71
2.05651e-71
2.2205e-71
9.94281e-72
2.59212e-71
-2.34241e-71
4.35314e-71
-2.10369e-71
4.81108e-71
-4.56867e-72
5.19625e-71
-1.42337e-71
5.51599e-71
-4.25638e-71
6.09982e-71
-3.42944e-71
7.05295e-71
-6.06051e-71
7.37302e-71
-1.96708e-71
6.69533e-71
-2.26842e-72
5.65855e-71
-6.10397e-72
5.12301e-71
3.12803e-72
4.64062e-71
8.2677e-72
4.73705e-71
-3.0621e-71
6.71745e-71
1.585e-71
5.67906e-71
5.73889e-75
4.52823e-71
1.03304e-72
5.99105e-71
-7.54472e-72
7.40345e-71
3.09472e-71
5.35013e-71
1.78232e-71
4.38919e-71
3.81703e-72
4.07233e-71
9.67417e-72
3.76505e-71
7.52033e-72
3.70458e-71
3.60799e-72
3.14677e-71
-3.26009e-72
2.46103e-71
-4.21095e-73
2.02322e-71
-2.33263e-72
1.66914e-71
-4.24742e-73
1.91817e-71
4.28814e-72
1.45316e-71
3.80034e-72
1.65171e-71
8.3528e-73
1.86833e-71
7.96961e-72
1.34337e-71
3.98419e-72
1.11493e-71
-8.39123e-74
1.1103e-71
3.68441e-74
9.79815e-72
1.33512e-72
8.29974e-72
-2.42702e-74
7.43942e-72
-2.3325e-73
8.03696e-72
2.50194e-72
6.02625e-72
1.42251e-72
5.2513e-72
9.22001e-73
4.48019e-72
1.19566e-72
3.43858e-72
8.75724e-73
2.75065e-72
1.88616e-73
3.10822e-72
9.72148e-73
2.22693e-72
4.02176e-73
1.84144e-72
-5.02475e-74
1.5679e-72
-1.24409e-74
1.25596e-72
6.3609e-74
9.74264e-73
4.31798e-74
8.03778e-73
1.16021e-73
6.54439e-73
2.32449e-73
4.89266e-73
1.1707e-73
3.61773e-73
7.94169e-74
2.60448e-73
4.52998e-74
1.83308e-73
4.36521e-74
4.22692e-72
1.17302e-72
6.11446e-70
4.103e-70
-1.31384e-68
-4.25005e-68
2.63564e-65
2.04614e-66
-1.25385e-63
-9.04404e-64
9.72203e-63
4.29782e-62
6.17469e-61
8.62244e-61
9.08175e-61
1.45508e-60
6.70046e-61
1.32108e-60
-2.23179e-58
-1.8e-59
9.54239e-56
1.55675e-56
4.09852e-55
-6.55242e-54
-3.43113e-52
-3.04522e-52
-2.45145e-52
7.35511e-51
1.0616e-50
-6.89812e-50
1.46092e-48
1.62124e-50
-4.81447e-47
-2.3556e-22
1.26134e-20
2.05233e-20
-5.21033e-19
-3.71926e-16
-2.57217e-15
1.91971e-13
2.81793e-12
1.44265e-11
4.03807e-11
7.0987e-11
9.36144e-11
1.03015e-10
1.05453e-10
1.05785e-10
1.05531e-10
1.04728e-10
9.92844e-11
8.49404e-11
6.31468e-11
4.04664e-11
2.24203e-11
1.05307e-11
4.33987e-12
1.49633e-12
4.39011e-13
1.13923e-13
2.29139e-14
3.07698e-15
1.47981e-16
-2.40326e-17
-2.37354e-18
1.48044e-19
1.02721e-20
-1.10435e-21
1.76679e-23
1.74962e-24
-1.39028e-25
5.58291e-27
-1.64297e-28
4.85498e-30
-1.35357e-31
3.71295e-33
-6.68955e-35
-3.31252e-37
4.37361e-38
-2.44728e-40
-1.42653e-41
-7.64811e-44
1.70562e-08
-4.41132e-09
1.51822e-08
-8.43641e-09
-1.65039e-08
1.54676e-08
8.72777e-09
-1.84057e-09
1.00799e-08
-1.62108e-08
-6.35025e-09
-3.12633e-08
-2.00615e-08
-1.59002e-08
-2.45608e-08
7.95257e-09
2.93415e-09
1.0402e-08
1.0668e-08
1.79974e-09
2.05331e-08
-4.53791e-08
-1.25837e-08
-3.06053e-08
-5.00204e-08
2.23669e-08
-5.31961e-08
6.58325e-08
-2.69214e-08
-3.33829e-08
2.23707e-08
-2.60821e-07
6.06049e-08
-4.45073e-07
-2.76913e-07
-5.87295e-07
-8.05677e-07
-7.90219e-07
-9.99644e-07
1.74918e-07
-1.469e-07
6.70526e-07
1.02535e-06
1.03179e-06
-8.64783e-08
1.5767e-06
-2.21148e-06
-1.68012e-06
1.55594e-06
1.34225e-08
9.87802e-07
3.17846e-06
1.8799e-07
1.01312e-06
2.36377e-07
2.3713e-07
-8.68371e-07
-1.47612e-07
2.07411e-06
1.09734e-06
9.29798e-07
2.4516e-06
-1.40604e-06
4.53087e-08
6.32463e-07
-5.51716e-08
7.37384e-07
9.00438e-07
6.4924e-07
1.71686e-06
-4.00685e-07
4.96197e-07
-6.28351e-07
-2.93482e-07
3.91038e-07
5.3857e-07
-8.5878e-08
2.33447e-07
-1.40827e-09
1.20556e-09
5.24174e-09
6.94834e-09
8.71874e-09
-4.61892e-09
4.11703e-09
1.19943e-08
-2.4535e-07
-4.03707e-07
-6.96891e-09
4.96333e-09
1.50282e-09
2.10294e-09
1.97646e-09
1.69987e-09
4.90967e-09
-1.30304e-09
5.17499e-09
-3.03138e-09
6.95183e-24
0
0
0
0
0
0
2.45517e-36
9.54893e-32
2.49637e-29
5.58207e-27
1.89486e-26
-1.70395e-26
2.73326e-25
-1.0025e-25
7.96152e-25
5.16614e-25
2.78989e-25
2.6832e-25
9.27278e-26
4.2066e-25
-1.24879e-25
2.4211e-25
-9.39443e-24
2.65003e-23
1.01859e-22
1.09144e-22
4.85759e-22
5.85024e-23
1.09725e-22
6.45003e-22
8.55829e-22
3.12836e-22
1.31664e-22
-5.33228e-22
-6.0029e-22
-1.70747e-21
-9.78808e-22
-3.63286e-21
-2.39839e-21
-2.44916e-21
-3.85004e-21
-3.26945e-21
-2.86717e-21
-5.54917e-21
-6.1055e-21
-8.37395e-21
-1.77586e-21
-3.02292e-21
5.86627e-21
1.20667e-20
1.52826e-20
2.01487e-20
1.02649e-20
1.03154e-20
1.04735e-21
-4.32188e-22
-5.03721e-21
-6.74257e-21
-6.10213e-21
-6.1261e-21
-3.14631e-21
-2.75357e-21
-1.53115e-21
-4.93393e-22
9.65019e-23
4.37606e-22
4.38324e-22
5.05584e-22
2.85394e-22
2.71681e-22
1.11667e-22
8.52157e-23
4.13421e-23
1.43213e-23
2.42011e-24
-4.83533e-24
-6.90724e-24
-6.86375e-24
-5.66625e-24
-4.03071e-24
-3.14981e-24
-1.53666e-24
-8.53905e-25
-5.76453e-25
-2.72515e-25
-1.38858e-25
-4.32458e-26
-1.55208e-26
-1.28503e-27
1.24299e-26
1.23214e-26
9.9199e-27
6.65695e-27
4.83757e-27
3.14391e-27
1.86657e-27
1.27869e-27
3.36684e-27
0
-1.09762e-24
0
-3.44239e-22
2.10107e-22
-6.04921e-47
1.18269e-21
-7.34859e-20
2.94771e-18
-6.25953e-17
-1.50806e-15
2.23e-14
8.32753e-13
7.11401e-12
2.54793e-11
5.56799e-11
8.38955e-11
9.94247e-11
1.04797e-10
1.05768e-10
1.05543e-10
1.05475e-10
1.02775e-10
9.33214e-11
7.44756e-11
5.16306e-11
3.07693e-11
1.58449e-11
6.93808e-12
2.60414e-12
8.31814e-13
2.29763e-13
5.34639e-14
9.18129e-15
8.59658e-16
-1.21294e-17
-1.02246e-17
-1.19145e-19
6.48459e-20
-1.35419e-21
-1.97452e-22
1.49469e-23
-4.14376e-25
7.67701e-28
3.34433e-28
-1.79534e-29
5.02492e-31
-6.10632e-33
-1.6174e-34
1.16135e-35
-2.11841e-37
-2.84433e-39
1.00351e-40
1.26463e-42
1.77882e-09
3.08343e-45
-7.56894e-07
-3.396e-07
6.75297e-07
-4.20368e-09
-4.85096e-10
-8.23912e-10
-3.75004e-09
-1.22529e-08
-2.52501e-08
6.87376e-08
-6.1207e-08
-4.13429e-07
-5.27083e-09
-6.32118e-07
-3.3428e-09
4.32733e-09
9.64277e-10
1.98644e-09
2.17599e-09
1.09722e-09
-5.58299e-10
1.08517e-08
-6.50554e-09
3.39037e-09
0
0
0
0
0
1.47204e-35
5.36716e-32
9.23943e-29
-6.10321e-28
8.49523e-25
-4.0421e-25
-5.1098e-25
-1.24878e-24
-1.07281e-24
-1.43739e-26
9.58333e-25
1.79359e-24
2.94706e-25
-5.26932e-26
1.17501e-24
-4.83081e-24
2.08966e-24
1.87332e-22
-6.02382e-22
-2.05319e-21
-1.00519e-21
3.71513e-22
-2.10723e-21
-1.61069e-21
8.12723e-22
8.3962e-22
-5.68542e-22
-1.44254e-23
7.84215e-22
3.95494e-21
5.73524e-21
5.69905e-21
3.51753e-21
5.83855e-21
5.04625e-21
6.38645e-21
1.27132e-20
3.6577e-21
7.75185e-21
2.48254e-21
-4.88332e-21
-2.04569e-20
-2.71811e-20
-3.57292e-20
-3.23339e-20
-4.92482e-21
-1.45718e-20
-1.1547e-21
1.64903e-21
9.70737e-21
8.80297e-21
9.01768e-21
7.46045e-21
1.24301e-21
2.14073e-21
7.82993e-22
-1.87728e-22
-9.02428e-23
-6.32948e-22
-4.55922e-22
-4.25021e-22
-8.24907e-23
-1.97326e-22
-5.67125e-23
-5.848e-23
1.74262e-23
4.63646e-24
5.76078e-25
3.80393e-24
6.60715e-24
3.34813e-24
2.14339e-24
8.01913e-25
4.43315e-25
-5.81925e-25
3.52259e-25
2.92517e-25
-8.2825e-26
8.70155e-26
7.12044e-27
4.11086e-26
3.08898e-26
-7.15663e-27
8.27119e-27
5.02548e-27
2.14594e-27
1.74232e-27
1.04129e-27
7.11156e-28
3.78269e-28
7.30111e-28
-3.5034e-27
3.58957e-25
3.86329e-19
-1.1015e-17
-7.31962e-16
-1.34594e-15
4.05248e-13
4.99264e-12
2.20667e-11
5.55531e-11
9.02778e-11
1.12204e-10
1.20208e-10
1.22185e-10
1.21931e-10
1.22107e-10
1.20175e-10
1.1207e-10
9.24284e-11
6.61389e-11
4.07045e-11
2.16911e-11
9.75344e-12
3.8262e-12
1.24882e-12
3.51322e-13
8.57369e-14
1.57305e-14
1.70583e-15
1.52554e-17
-1.81408e-17
-5.97288e-19
1.19039e-19
-4.64781e-22
-4.8615e-22
2.71397e-23
-5.19835e-25
-1.38364e-26
1.17575e-27
-5.19337e-29
1.41291e-30
-2.32851e-32
-9.65189e-35
2.22879e-35
-5.63942e-37
-4.15768e-39
2.37277e-40
2.78157e-42
8.5133e-45
6.40115e-10
2.05788e-09
1.74369e-09
5.31844e-09
1.36538e-08
4.83239e-09
5.48186e-08
1.83805e-07
-2.23785e-07
-6.19152e-07
-1.36278e-10
-9.27501e-11
-1.1775e-09
-4.22016e-10
-6.88165e-10
-6.58836e-10
2.253e-09
-4.38906e-09
3.17596e-09
-2.17515e-09
0
0
0
0
-1.30844e-52
9.43757e-34
-3.29458e-30
-2.86196e-28
-7.62108e-26
-1.00689e-24
-4.60927e-25
-2.8153e-24
-3.19129e-24
-1.5177e-24
-2.27822e-24
-1.13253e-24
2.17597e-25
-5.31659e-25
3.64627e-24
2.42113e-24
-7.88718e-24
5.70036e-23
-3.03029e-22
-5.04396e-22
5.55599e-22
-1.4547e-21
2.68405e-21
1.19547e-21
1.23445e-21
-8.16193e-22
3.92881e-22
1.60603e-21
2.68265e-21
1.7592e-21
1.45608e-21
7.15869e-21
3.42763e-21
-1.19315e-22
-3.22407e-21
9.02235e-21
5.40841e-21
4.97082e-21
1.60316e-20
6.00915e-21
1.34476e-21
-1.04048e-20
-1.14752e-20
-2.05774e-20
-2.71984e-20
-1.57937e-20
-1.79307e-20
-2.79072e-21
6.26892e-22
7.87087e-21
6.35357e-21
9.35522e-21
6.32732e-21
2.38885e-21
1.9501e-21
1.18327e-21
-7.10488e-22
-4.47898e-22
-6.5477e-22
-3.18278e-22
-4.47261e-22
-2.51984e-22
-1.97396e-22
-1.48701e-22
-2.89503e-23
-4.45795e-23
-2.16771e-24
-1.04636e-23
3.30022e-24
9.31197e-24
2.86462e-24
2.71665e-24
8.96731e-25
4.76432e-25
-1.30821e-25
3.9466e-25
8.40013e-26
-2.77811e-26
1.17068e-25
-1.02019e-26
7.3129e-26
3.85612e-26
3.51346e-28
1.27471e-26
5.20601e-27
1.5198e-27
1.90118e-27
8.76059e-28
9.46659e-28
5.65786e-28
5.01965e-28
-1.85733e-27
-4.64165e-26
-2.64935e-15
6.37954e-14
1.61114e-12
1.15488e-11
3.7248e-11
7.37049e-11
1.03677e-10
1.17497e-10
1.22154e-10
1.21991e-10
1.21962e-10
1.21448e-10
1.17009e-10
1.03654e-10
7.96577e-11
5.27087e-11
3.03431e-11
1.47395e-11
6.23754e-12
2.21172e-12
6.71538e-13
1.79923e-13
3.84366e-14
5.57581e-15
3.63596e-16
-3.39973e-17
-5.12753e-18
1.9474e-19
2.6161e-20
-1.9291e-21
1.90163e-24
4.83859e-24
-2.95662e-25
1.07719e-26
-2.89401e-28
8.50947e-30
-2.56451e-31
7.79548e-33
-1.63204e-34
7.97486e-38
9.35775e-38
-8.0801e-40
-3.06574e-41
-1.86684e-43
-1.99513e-46
-3.2442e-09
8.83122e-10
-2.41407e-09
-4.57794e-09
-1.40284e-08
5.27014e-09
1.08207e-07
7.6569e-09
-7.63286e-07
9.40061e-08
3.35045e-09
-1.84389e-09
-3.47869e-10
-5.27012e-10
-5.17306e-10
-1.90678e-09
-2.47283e-09
5.28018e-09
-3.39067e-09
2.21855e-09
0
2.01082e-20
-1.52678e-16
5.58615e-18
-1.65384e-19
-3.34485e-09
0
0
0
0
0
0
0
0
0
0
0
0
0
0
0
0
0
0
0
0
0
0
0
0
0
0
0
0
0
0
0
0
0
0
0
0
0
0
0
0
0
0
0
0
0
0
0
0
0
0
0
0
0
0
0
0
0
0
0
0
0
0
0
0
0
0
0
0
0
0
0
0
0
0
0
0
0
0
0
0
0
0
0
0
0
0
0
0
0
0
0
0
0
0
0
0
0
0
0
0
0
0
0
0
0
0
0
0
0
0
0
0
0
0
0
0
0
0
0
0
0
0
0
0
0
0
0
0
0
0
0
0
0
0
0
0
0
0
0
0
0
0
0
0
0
0
0
0
0
0
0
0
0
0
0
0
0
0
0
0
0
0
0
0
0
0
0
0
0
0
0
0
0
0
0
0
0
0
0
0
0
0
0
0
0
0
0
0
0
0
0
0
0
0
0
0
2.02094e-20
1.4561e-21
4.10111e-21
5.19097e-19
0
0
0
3.33912e-33
3.20717e-30
2.20677e-27
1.5551e-27
1.61527e-23
-5.98862e-24
6.79353e-25
-5.96981e-24
-2.04516e-23
-4.10877e-25
1.67886e-23
2.32691e-23
1.60668e-23
2.06976e-24
3.74257e-23
-3.7747e-23
5.30659e-22
1.72403e-21
-4.29407e-21
-9.80319e-21
-6.50804e-21
1.04911e-20
1.96653e-21
-2.24639e-20
-1.3001e-20
-4.97619e-21
-2.22192e-20
-5.82363e-21
-1.31899e-20
-4.58243e-21
-4.97943e-21
4.56884e-20
5.94612e-20
5.97378e-20
7.63696e-20
2.9809e-20
3.36399e-20
3.87255e-20
1.73151e-19
2.76839e-19
2.26674e-19
2.89786e-19
8.90068e-20
-2.91283e-20
-2.20454e-19
-2.6854e-19
-3.85094e-19
-3.6479e-19
-2.72708e-19
-1.65313e-19
-4.29798e-20
2.64779e-20
7.18697e-20
7.5171e-20
7.64633e-20
7.80205e-20
5.60286e-20
3.93373e-20
1.62e-20
8.03084e-21
2.34313e-21
-2.4e-21
-3.55899e-21
-3.65322e-21
-2.7796e-21
-1.86562e-21
-1.40747e-21
-1.01129e-21
-6.09243e-22
-2.17252e-22
-1.12847e-22
4.45293e-24
2.76565e-23
2.70059e-23
2.96058e-23
2.54323e-23
1.91542e-23
1.19189e-23
9.11348e-24
5.40601e-24
3.5987e-24
2.46851e-24
9.61435e-25
6.13677e-25
2.77779e-25
5.60288e-26
4.25406e-26
-9.35202e-27
-7.62801e-27
-1.11541e-26
-7.64133e-27
-9.88266e-26
8.0366e-24
-2.97146e-15
0
1.23687e-23
0
0
0
0
0
0
0
0
0
0
0
0
0
0
0
0
0
0
0
0
0
0
0
0
0
0
0
0
0
0
0
0
0
0
0
0
0
0
0
0
0
0
0
0
0
0
0
0
0
0
0
0
0
0
0
0
0
0
0
0
1.56878e-122
1.9791e-122
1.49856e-121
-6.47533e-121
1.97074e-117
-1.42567e-119
-3.47485e-107
1.8359e-109
-8.69943e-106
-1.16537e-107
-2.21482e-105
2.33699e-105
-1.00051e-104
1.1727e-104
1.6183e-102
2.48355e-102
3.10104e-102
4.45712e-102
1.8818e-102
3.07349e-102
1.29313e-101
1.2039e-101
8.19049e-101
8.9998e-101
2.1436e-100
-1.20968e-99
2.10762e-98
4.73508e-98
3.03908e-97
3.90909e-97
1.92765e-97
2.8533e-97
-1.81305e-97
1.34175e-96
-1.20828e-96
2.18147e-97
-3.10037e-95
-2.39249e-95
-2.99943e-95
-5.76716e-96
-4.8504e-94
-3.43568e-94
-6.85993e-94
-5.31474e-94
-4.95012e-94
-3.27141e-94
-6.53931e-94
-4.46822e-95
-1.02583e-93
-7.22184e-94
-9.64423e-94
-6.69575e-94
-1.5826e-93
-1.22955e-93
-2.3195e-93
-2.62707e-93
-1.83836e-91
-3.42983e-91
-2.94636e-89
-3.55204e-89
-1.11667e-88
4.1017e-88
-1.53676e-88
2.42888e-88
-9.27106e-88
5.29852e-88
4.35521e-86
-1.64923e-87
5.05865e-85
-2.06767e-84
9.24489e-85
-3.00494e-85
5.65299e-83
6.37028e-83
5.39134e-83
6.97912e-83
2.4951e-83
7.64488e-83
-3.25e-84
6.14939e-82
-1.72646e-82
7.7924e-82
-2.06193e-81
5.47015e-81
-6.16639e-81
-3.0468e-82
-2.93279e-80
-1.66173e-80
-4.08633e-80
-2.5892e-79
1.79194e-79
-8.00174e-79
8.08997e-79
-1.40603e-78
1.30182e-78
-3.642e-78
4.37133e-78
-1.1527e-77
2.96063e-77
-5.07264e-78
1.50717e-78
2.66396e-76
-1.66748e-76
4.34352e-76
-2.0634e-75
8.15446e-76
-5.20578e-75
-4.50524e-76
-3.82415e-75
-2.23945e-75
-3.51754e-75
-3.3109e-75
-3.2812e-75
-1.11084e-74
5.86273e-76
-1.35809e-74
1.174e-74
-3.11073e-74
1.85957e-74
-2.68321e-74
2.22493e-74
-2.13047e-74
4.02752e-74
-1.02974e-73
1.05851e-73
-7.7726e-74
2.24875e-73
-1.37986e-73
4.00797e-73
5.28726e-74
8.06731e-73
-3.06081e-73
6.1727e-73
-1.12253e-73
6.04244e-73
-2.65364e-73
1.54403e-72
2.34257e-73
1.47543e-72
-1.98976e-73
1.61541e-72
-3.97944e-74
5.2659e-72
2.7006e-72
6.59638e-72
7.29807e-72
6.57629e-72
-1.6748e-72
2.80063e-72
8.05536e-72
3.83119e-72
1.90725e-71
1.39748e-71
-2.06227e-71
1.29636e-70
7.15441e-71
9.84838e-71
8.97034e-72
7.81401e-71
-7.19675e-73
6.66777e-71
-2.41669e-72
2.52129e-70
1.29703e-70
2.21444e-70
9.80888e-71
1.75622e-70
5.72879e-71
3.73842e-70
4.7866e-71
5.1976e-70
1.66282e-70
4.49251e-70
-5.74048e-71
6.88636e-70
-4.46249e-70
1.02994e-69
1.80394e-70
1.10076e-69
-3.63439e-70
2.08364e-69
1.39075e-69
1.48008e-69
6.43652e-70
1.06752e-69
4.0826e-70
7.9634e-70
1.87051e-70
7.21278e-70
2.3302e-70
9.4807e-70
3.09489e-70
8.2986e-70
-9.55561e-71
1.87992e-69
-2.99981e-70
2.4887e-69
-2.4882e-70
2.18647e-69
-4.11265e-70
2.59007e-69
-1.3331e-69
3.3747e-69
1.23706e-70
3.44213e-69
-1.31814e-69
4.30236e-69
1.28429e-69
3.36123e-69
3.75375e-70
2.65688e-69
-6.53428e-71
2.3622e-69
-3.22524e-70
1.928e-69
-4.17665e-70
1.68318e-69
-5.78027e-70
2.55145e-69
5.11689e-70
2.12595e-69
-3.21974e-70
2.10287e-69
8.47235e-71
1.71607e-69
-1.21561e-70
2.33944e-69
4.79192e-70
1.88641e-69
3.31533e-70
1.46212e-69
3.43191e-70
1.46259e-69
2.23761e-70
1.2293e-69
4.54979e-71
1.16934e-69
-3.99166e-70
1.21155e-69
1.32533e-70
1.15463e-69
4.32962e-70
8.66984e-70
2.94904e-70
7.61993e-70
3.14894e-70
5.92092e-70
1.475e-70
5.6617e-70
2.00154e-70
4.18163e-70
7.82606e-71
5.19891e-70
1.2002e-70
4.31155e-70
3.2879e-71
3.4707e-70
3.14823e-71
3.46527e-70
1.27704e-71
3.31999e-70
2.54849e-71
2.65775e-70
1.05734e-71
2.37316e-70
-4.50417e-71
2.01361e-70
-1.67817e-72
1.68763e-70
-2.70177e-71
1.31603e-70
-2.10235e-71
1.15006e-70
-1.57459e-71
9.09552e-71
-1.09e-71
7.09792e-71
-5.35101e-72
6.06564e-71
-2.51558e-72
5.354e-71
1.33421e-72
4.1693e-71
1.17061e-72
3.30319e-71
-1.28813e-72
2.58551e-71
-3.80351e-72
2.00572e-71
-8.26629e-73
1.4911e-71
-8.3154e-73
1.01997e-71
-8.29621e-73
7.54312e-72
-8.02651e-73
4.89221e-72
-9.12193e-73
3.37815e-72
-1.13828e-72
2.44218e-72
-2.31775e-73
-3.41268e-72
-2.56399e-72
-7.92038e-73
1.99096e-70
2.02078e-68
7.20024e-69
-2.68887e-66
-3.0037e-66
2.71377e-64
2.80459e-65
-5.48817e-62
-7.29095e-63
1.28025e-60
1.92612e-60
9.49229e-59
1.15667e-58
3.23853e-59
1.93188e-58
-1.29528e-59
1.74753e-58
-1.41815e-57
-1.01687e-57
6.69964e-55
8.31444e-56
-2.37842e-52
-5.90898e-53
-6.29083e-51
1.32104e-50
7.13921e-49
6.53323e-49
-4.71084e-48
-8.8413e-48
4.17355e-48
-1.66805e-46
-5.81539e-48
-1.82951e-16
-1.52648e-09
-5.51825e-09
-5.09737e-09
-1.4906e-17
-5.34641e-17
-1.76913e-19
2.87318e-20
-3.52958e-19
-8.53437e-16
-3.89053e-16
-1.58074e-15
6.05132e-18
1.01278e-17
7.72201e-14
1.89176e-12
1.33667e-11
4.29914e-11
8.50585e-11
1.19588e-10
1.35543e-10
1.41059e-10
1.40682e-10
1.40819e-10
1.40101e-10
1.34995e-10
1.19523e-10
9.17797e-11
6.07577e-11
3.49905e-11
1.70167e-11
7.18695e-12
2.55228e-12
7.74095e-13
2.0645e-13
4.41531e-14
6.44802e-15
4.24808e-16
-3.82887e-17
-5.93719e-18
2.14093e-19
3.05575e-20
-2.17373e-21
-1.65145e-24
5.63969e-24
-3.36456e-25
1.19385e-26
-3.17116e-28
9.12523e-30
-2.80047e-31
8.58088e-33
-1.81237e-34
1.68882e-37
1.00859e-37
-9.09515e-40
-3.27258e-41
-1.92158e-43
8.37411e-45
1.86762e-44
-4.16393e-46
4.56448e-09
1.7429e-10
4.58691e-08
-2.52603e-08
1.0816e-08
-2.84202e-09
5.48525e-09
1.24016e-08
-3.99892e-09
6.91795e-10
-3.09989e-09
-7.594e-10
1.39189e-08
4.16956e-09
3.61207e-08
2.91757e-08
1.10516e-08
3.58161e-08
-2.21245e-08
1.02903e-08
-7.0076e-08
-1.7153e-08
-6.83132e-08
-3.91887e-08
-6.30461e-09
1.54344e-08
7.56709e-08
1.20524e-07
1.16898e-07
2.07571e-07
8.16804e-08
2.03665e-07
-2.08226e-07
8.78943e-08
-4.99563e-07
-9.32786e-08
-6.20759e-07
-1.69122e-07
1.34892e-06
6.07566e-06
1.44028e-06
7.34102e-06
-3.14651e-06
-1.37087e-06
2.51421e-06
-6.89657e-07
8.08178e-06
8.88074e-06
1.70032e-06
7.88112e-06
-2.43892e-06
-1.00895e-06
1.42264e-06
-6.93562e-07
4.6064e-06
4.96834e-06
2.53841e-06
4.98338e-06
-6.24927e-07
1.798e-06
7.40101e-07
9.81997e-07
2.01993e-06
1.95909e-06
2.87876e-06
4.05579e-06
9.86536e-07
2.75462e-06
1.90703e-06
2.74262e-06
2.17341e-06
3.81057e-06
5.66933e-07
1.82109e-06
1.90573e-06
0
3.5119e-09
-1.29077e-08
8.61042e-09
-2.59866e-08
-1.60003e-08
1.02515e-07
-1.14049e-07
-6.1918e-07
5.4965e-07
9.8878e-09
5.5866e-09
5.34472e-09
2.75216e-09
-6.24784e-10
-2.20961e-09
-9.29686e-10
-1.33882e-09
-1.40276e-09
-2.62681e-09
2.38843e-10
-2.24879e-09
4.77471e-12
1.76033e-10
0
0
0
-2.9492e-09
-2.17025e-08
1.23414e-08
2.13264e-07
4.44727e-06
-4.76847e-07
1.04795e-09
-2.46807e-09
-3.42012e-07
-1.63097e-07
-1.05213e-09
1.08114e-09
1.40828e-23
0
0
-5.70253e-22
1.75886e-18
0
-3.64601e-22
0
0
-1.61119e-35
7.42739e-32
-1.8694e-28
-2.13886e-27
-1.94305e-24
-1.28158e-23
-8.23152e-24
-3.71905e-23
-3.49137e-23
-1.34591e-23
-2.0838e-23
-8.73515e-24
1.0046e-23
-6.57087e-24
3.49457e-23
5.01176e-23
-5.04553e-23
6.15515e-22
-2.97215e-21
-5.38154e-21
5.9388e-21
-1.07988e-20
1.3391e-20
3.34156e-21
3.51648e-21
-7.61805e-21
2.59978e-21
-2.59585e-21
-2.97338e-21
-1.71714e-21
-6.9485e-21
-3.73161e-21
-4.92489e-21
-1.33808e-20
-3.26229e-20
2.12301e-20
1.71017e-20
9.41901e-20
1.88697e-19
1.6643e-19
1.37057e-19
2.75888e-19
2.04907e-19
2.43943e-20
-1.753e-19
-2.96858e-19
-3.6183e-19
-3.30604e-19
-2.67663e-19
-2.36659e-19
-9.54387e-20
-1.72423e-20
4.79251e-20
7.71661e-20
7.25292e-20
7.51588e-20
5.49507e-20
4.40819e-20
2.49469e-20
1.29186e-20
5.09697e-21
-1.15753e-21
-3.28644e-21
-3.76105e-21
-2.82345e-21
-2.71238e-21
-1.6519e-21
-1.22768e-21
-7.12199e-22
-3.01466e-22
-1.60983e-22
-9.08199e-24
2.8864e-23
2.89267e-23
3.1394e-23
2.77435e-23
2.1469e-23
1.46536e-23
1.05528e-23
6.2417e-24
4.39033e-24
2.914e-24
1.49821e-24
7.8922e-25
3.28619e-25
5.71316e-26
5.16852e-26
-1.20619e-26
-8.81475e-27
-1.35037e-26
-1.34803e-26
-4.14712e-26
-1.3461e-24
3.508e-33
-1.11511e-37
0
0
3.92341e-07
-4.5844e-16
4.77766e-13
5.78781e-12
2.55606e-11
6.40756e-11
1.0422e-10
1.2946e-10
1.38779e-10
1.41162e-10
1.40691e-10
1.4091e-10
1.3866e-10
1.2921e-10
1.06479e-10
7.62451e-11
4.68866e-11
2.50251e-11
1.12591e-11
4.40705e-12
1.43608e-12
4.04815e-13
9.87585e-14
1.80947e-14
1.97051e-15
1.8796e-17
-2.07544e-17
-7.18462e-19
1.3556e-19
-3.04013e-22
-5.63376e-22
3.04197e-23
-5.545e-25
-1.69655e-26
1.39171e-27
-5.96633e-29
1.63189e-30
-2.73139e-32
-7.71683e-35
2.39587e-35
-6.25336e-37
-4.18489e-39
2.58161e-40
2.94364e-42
0
2.14351e-09
9.34206e-07
2.12143e-06
6.36928e-11
0
-8.54438e-09
7.74915e-09
1.56481e-08
-2.84546e-08
5.66391e-08
1.25059e-07
-3.14813e-07
-1.57737e-07
-3.11865e-07
1.19756e-11
-1.41287e-09
-3.18552e-09
-1.18869e-09
1.17882e-10
-1.08313e-09
-1.38999e-09
-8.92568e-10
-5.08157e-10
-6.17673e-09
3.24741e-09
-1.1778e-09
-2.13653e-09
0
2.03075e-23
0
-8.52492e-10
1.79934e-09
-2.82531e-09
1.87802e-10
3.45393e-10
-2.38832e-07
3.84156e-08
6.66305e-08
-4.71943e-08
-1.16858e-08
3.5423e-09
-3.8587e-43
-6.85551e-41
-2.62757e-39
1.98744e-37
2.22834e-36
-4.21415e-34
1.68111e-32
-4.87598e-31
1.33906e-29
-4.7347e-28
2.11941e-26
-6.72943e-25
1.34457e-23
-7.01334e-23
-3.39271e-21
6.78999e-20
2.00099e-19
-1.15534e-17
-4.75945e-17
8.84043e-16
1.11668e-14
6.92841e-14
3.08251e-13
1.14089e-12
3.67618e-12
9.94232e-12
2.29746e-11
4.53876e-11
7.69971e-11
1.11374e-10
1.40325e-10
1.54791e-10
1.582e-10
1.58332e-10
1.58626e-10
1.57301e-10
1.49933e-10
1.27432e-10
8.41389e-11
3.7173e-11
1.44821e-23
4.09305e-25
-1.10614e-27
-1.63731e-26
-2.08094e-26
-3.24811e-26
-5.128e-26
-1.17358e-25
-6.12408e-26
1.10439e-25
-8.56089e-26
5.71332e-25
8.2404e-25
5.32188e-25
-2.52059e-25
-1.26066e-24
-1.17432e-25
7.72834e-25
-2.56876e-24
3.89269e-24
1.51875e-23
-1.20799e-23
-5.83195e-23
-8.71373e-24
-5.04408e-23
-2.36575e-22
-2.42133e-22
8.15363e-22
9.19694e-22
1.58002e-21
2.98047e-21
3.62747e-21
6.76975e-21
7.16957e-21
5.1749e-21
-3.76286e-21
-2.67555e-20
-2.76874e-20
-6.97552e-20
-1.02501e-19
-1.41112e-19
-1.08028e-19
-1.15193e-19
-2.42084e-20
1.02386e-19
2.97758e-19
4.87103e-19
4.77317e-19
8.04217e-19
7.90478e-19
4.03235e-19
5.46886e-21
-2.83452e-19
-4.35955e-19
-4.48894e-19
-5.31879e-19
-2.52882e-19
1.05455e-19
-4.86619e-20
-1.31959e-20
1.00425e-19
2.01888e-23
1.9571e-23
-5.88772e-20
-1.8574e-19
-7.6776e-20
-4.07447e-20
-1.21507e-20
-1.85029e-20
-5.395e-21
8.86901e-21
4.01899e-20
1.30758e-19
3.70753e-20
-2.62742e-21
7.1134e-20
1.38423e-20
1.74828e-21
7.31361e-22
-1.11291e-22
-1.82473e-23
-8.41785e-23
-2.58015e-23
-5.60186e-23
-2.15207e-23
-3.51215e-23
-1.45313e-23
6.25738e-23
4.37129e-10
2.21399e-11
-1.1013e-09
2.02294e-09
-6.60354e-10
6.44271e-11
1.49616e-10
1.16976e-06
-2.81335e-07
-1.09487e-07
7.68294e-08
-3.59539e-09
-2.84237e-08
-4.04988e-09
6.14694e-42
5.95166e-40
-4.20442e-39
-1.51352e-36
4.39581e-35
4.06298e-34
-8.13845e-32
4.13116e-30
-1.45956e-28
3.77926e-27
-6.53976e-26
-3.21158e-25
5.01138e-23
-1.2114e-21
3.84204e-21
2.29595e-19
-1.96693e-18
-3.43446e-17
1.01708e-16
3.62558e-15
2.94857e-14
1.53366e-13
6.07223e-13
2.08415e-12
6.1729e-12
1.54371e-11
3.32229e-11
6.00699e-11
9.4384e-11
1.2703e-10
1.48824e-10
1.57178e-10
1.58164e-10
1.58359e-10
1.5866e-10
1.5472e-10
1.41286e-10
1.07012e-10
5.93327e-11
0
-4.70217e-15
6.03547e-25
-5.58147e-26
-3.70947e-27
-2.18727e-26
-2.62809e-26
-7.19105e-26
-7.41734e-26
-2.04763e-25
-1.12447e-25
-4.28978e-26
3.33826e-25
5.24611e-25
6.61654e-26
-1.4198e-24
-8.55619e-25
-7.08981e-25
-4.40132e-25
-1.57428e-24
-1.02944e-23
5.42156e-24
2.34644e-23
3.08636e-23
-5.66971e-23
-8.04756e-23
-9.55943e-24
-1.36293e-22
5.11285e-22
3.23985e-22
1.25407e-21
2.41931e-21
3.60878e-21
4.91418e-21
8.12464e-21
7.28649e-21
1.28702e-20
-1.13789e-20
-4.18217e-20
-3.64186e-20
-6.99603e-20
-7.14968e-20
-1.26902e-19
-1.46693e-19
-5.35877e-20
-5.26563e-20
1.02748e-19
3.67134e-19
5.05904e-19
2.33141e-19
6.15924e-19
4.59508e-19
1.12608e-19
-2.98173e-19
-5.79975e-19
-6.20217e-19
-3.38492e-19
-7.79836e-20
-1.10307e-19
-1.6113e-19
-6.38432e-20
-3.48537e-20
-1.02638e-19
-1.64272e-19
5.04604e-20
1.79902e-20
-8.15456e-20
-4.39067e-20
4.87758e-21
4.59515e-20
-5.5309e-21
-6.40475e-20
-7.45915e-20
9.47257e-21
2.25989e-20
-7.14586e-21
-3.91553e-21
-3.38234e-21
4.53721e-22
-1.01845e-22
-1.34247e-22
-1.05282e-22
2.09141e-26
-4.65568e-23
-1.15741e-22
-5.0461e-23
-4.90449e-24
-4.8594e-23
-9.43857e-23
4.12915e-24
-9.15734e-23
-2.33398e-25
-1.94668e-26
-1.11732e-28
2.99423e-27
-2.24109e-30
0
-2.2896e-31
9.6842e-12
9.38957e-13
7.84422e-15
1.80026e-13
3.47874e-12
2.0535e-11
-1.49454e-08
-1.28166e-09
1.64839e-08
2.82165e-10
4.70942e-10
6.65844e-10
1.16382e-10
0
0
0
0
0
0
0
0
0
0
0
0
0
0
0
0
0
0
0
0
0
0
0
0
0
0
0
0
0
0
0
0
0
0
0
0
0
0
0
0
0
0
0
0
0
0
0
0
0
0
0
0
0
0
0
0
0
0
0
0
0
0
0
0
0
0
0
0
0
0
0
0
0
0
0
0
0
0
0
0
0
0
0
0
0
0
0
0
0
0
0
0
0
0
0
0
0
0
0
0
0
0
0
0
0
0
0
0
0
0
0
0
0
0
0
0
0
0
0
0
0
0
0
0
0
0
0
0
0
0
0
0
0
0
0
0
0
0
0
0
0
0
0
0
0
0
0
0
0
0
0
0
0
0
0
0
0
0
0
0
0
0
0
0
0
0
0
0
0
0
0
0
0
0
0
0
0
0
0
0
0
0
0
0
0
0
0
0
0
0
4.65408e-21
2.14714e-18
1.12602e-11
-3.36533e-09
0
-9.54832e-30
0
-3.22365e-34
0
-4.85958e-34
8.71289e-26
-2.52797e-27
3.0244e-26
-4.89214e-22
-5.5392e-19
-8.21256e-24
-1.05618e-21
0
0
9.12841e-23
-6.30595e-10
-7.23721e-22
-4.57805e-23
5.67396e-23
-2.41056e-22
-9.93781e-22
-9.03614e-22
1.59732e-21
2.12025e-21
7.41854e-25
7.20036e-24
-9.53434e-22
-1.90644e-21
-1.6178e-21
2.3616e-21
-3.27901e-20
1.75848e-20
-2.72777e-19
4.42203e-20
-1.08632e-19
-1.27638e-18
-1.18829e-18
-6.47976e-19
4.6703e-19
2.62087e-19
4.08545e-20
3.33605e-19
1.02912e-18
1.39604e-18
-2.27726e-19
-3.34806e-19
4.21576e-22
-9.05018e-22
-3.69127e-19
-1.22555e-18
-1.40282e-18
2.98409e-18
9.84832e-19
-1.41058e-18
-6.92991e-19
-6.74236e-18
-8.02852e-18
-1.15821e-17
-7.15663e-18
-6.19566e-18
1.77844e-18
3.28212e-18
6.54482e-18
8.36799e-18
6.9986e-18
6.42709e-18
2.74363e-18
1.95533e-18
3.98234e-19
-6.1317e-19
-9.90381e-19
-1.04506e-18
-1.1061e-18
-8.64649e-19
-4.463e-19
-2.85385e-19
-1.72603e-19
-5.5907e-20
-1.63657e-20
1.88053e-20
2.49131e-20
2.70106e-20
1.88957e-20
1.59202e-20
1.37904e-20
8.00093e-21
4.67847e-21
2.27828e-21
1.70793e-21
1.02481e-21
1.78084e-22
5.34099e-23
8.91977e-24
-9.95455e-23
-7.69116e-23
-6.95371e-23
-5.2817e-23
-3.77026e-23
-2.41689e-23
-1.47337e-23
-1.00244e-23
-5.91518e-24
-3.7621e-24
-1.68473e-24
-1.09492e-24
-6.70053e-25
-3.1707e-26
1.05507e-23
5.64467e-31
-1.55546e-29
0
0
0
0
0
0
0
0
0
0
0
0
0
0
0
0
0
0
0
0
0