/*--------------------------------*- C++ -*----------------------------------*\
  =========                 |
  \\      /  F ield         | OpenFOAM: The Open Source CFD Toolbox
   \\    /   O peration     | Website:  https://openfoam.org
    \\  /    A nd           | Version:  7
     \\/     M anipulation  |
\*---------------------------------------------------------------------------*/
FoamFile
{
    version     2.0;
    format      ascii;
    class       volScalarField;
    location    "0.8";
    object      T;
}
// * * * * * * * * * * * * * * * * * * * * * * * * * * * * * * * * * * * * * //

dimensions      [0 0 0 1 0 0 0];

internalField   nonuniform List<scalar> 
46572
(
0
0
0
0
0
0
0
0
0
0
0
0
0
0
0
0
0
0
0
0
0
0
0
0
0
0
0
0
0
0
0
0
0
0
0
0
0
0
0
0
0
0
0
0
0
0
0
0
0
0
0
0
0
0
0
0
0
0
0
0
0
0
0
0
0
0
0
0
0
0
0
0
0
0
0
0
0
0
0
0
0
0
0
0
0
0
0
0
0
0
0
0
0
0
0
0
0
0
0
0
0
0
0
0
0
0
0
0
0
0
0
0
0
0
0
0
0
0
0
0
0
0
0
0
0
0
0
0
0
0
0
0
0
0
0
0
0
0
0
0
0
0
0
0
0
0
0
0
0
0
0
0
0
0
0
0
0
0
0
0
0
0
0
0
0
0
0
0
0
0
0
0
0
0
0
0
0
0
0
0
0
0
0
0
0
0
0
0
0
0
0
0
0
0
0
0
0
0
0
0
0
0
0
0
0
0
0
0
0
0
0
0
0
0
0
0
0
0
0
0
0
0
0
0
0
0
0
0
0
0
0
0
0
0
0
0
0
0
0
0
0
0
0
0
0
0
0
0
0
0
0
6.50917e-154
7.58922e-154
-1.52356e-141
-1.17879e-143
1.75311e-134
5.3609e-136
-2.31243e-131
-2.95548e-131
-6.54154e-130
2.9125e-129
-5.96758e-128
2.94597e-128
-4.65187e-123
-8.48701e-124
-2.18601e-120
-4.41141e-120
-3.75158e-117
-4.72303e-117
-1.24138e-116
-1.57077e-116
-8.48639e-117
-1.19245e-116
1.03464e-115
-3.08909e-115
2.62993e-114
-1.89249e-115
3.12144e-113
2.28412e-113
6.71745e-112
-2.21461e-112
3.8079e-111
-1.03081e-110
5.05542e-110
7.50188e-110
4.52448e-109
-1.99397e-110
1.34629e-106
1.54523e-106
1.44879e-106
1.72966e-106
9.14526e-107
1.20318e-106
9.29909e-107
3.55818e-107
1.48193e-104
1.80302e-104
9.45508e-105
1.1519e-104
1.52315e-104
-2.68587e-104
2.38796e-103
2.42131e-103
3.11303e-103
3.52265e-103
2.9644e-103
3.04333e-103
2.45562e-103
7.84713e-104
3.12938e-102
3.65208e-102
6.8858e-102
7.64098e-102
4.55518e-102
5.15028e-102
3.08405e-102
4.22086e-102
6.4458e-101
7.39847e-101
4.54647e-101
3.53522e-101
3.13974e-101
2.37289e-101
2.64823e-101
-8.75691e-102
4.15268e-101
-5.98694e-101
9.17389e-100
-3.77994e-101
9.94135e-100
3.49239e-100
3.49666e-98
3.15243e-98
8.20119e-98
9.67324e-98
5.20348e-98
6.50346e-98
6.6255e-98
-7.35176e-98
3.55543e-97
2.26382e-97
8.44595e-97
3.59352e-97
2.39695e-96
4.82417e-97
2.57277e-96
-1.11588e-96
1.64472e-95
1.5763e-95
1.09285e-95
1.02282e-95
7.96663e-96
4.20295e-96
1.09452e-95
9.40186e-96
7.72119e-96
5.72977e-96
6.66898e-96
4.75595e-98
3.48527e-95
3.33358e-95
2.31768e-95
2.02075e-95
2.02422e-95
-9.95346e-97
3.45893e-95
1.71512e-95
3.74909e-95
2.05854e-95
3.90863e-95
-1.32046e-95
5.2735e-95
-4.33538e-95
1.34942e-94
6.49626e-95
2.34894e-94
-3.7057e-94
3.22024e-94
-1.52091e-94
3.53761e-94
-3.14579e-94
2.67147e-94
1.53745e-94
6.28452e-95
7.16689e-94
-5.17364e-94
1.57295e-93
-2.16452e-93
2.01355e-93
-6.88279e-93
5.85952e-93
-7.58467e-93
5.75008e-93
-7.86322e-93
7.16476e-93
-1.76284e-92
1.39223e-92
-2.70318e-92
-4.58493e-93
-2.25695e-92
-4.51265e-93
-8.73498e-93
-3.24198e-92
2.13899e-93
-5.83658e-92
2.65667e-92
-1.16338e-91
7.94765e-92
-2.16688e-91
1.5489e-91
-3.96181e-91
3.02695e-91
-5.78882e-91
1.30568e-90
-2.27076e-90
1.59685e-90
-2.31461e-90
1.84798e-90
-2.52019e-90
1.92951e-90
-2.41257e-90
4.0566e-90
-4.28659e-90
5.7918e-90
-1.79881e-90
4.69647e-90
-2.98733e-90
6.88503e-90
-1.05109e-89
1.14338e-89
-1.44615e-89
1.50888e-89
-1.5187e-89
1.95134e-89
-2.75049e-89
3.18646e-89
-5.21987e-89
3.90584e-89
-4.11835e-89
6.44773e-89
-6.94407e-89
6.41804e-89
-4.51207e-89
6.77363e-89
-1.19532e-89
6.26383e-89
-2.38837e-89
6.44589e-89
-5.03473e-89
1.98344e-88
-3.13104e-89
1.6221e-88
-1.26524e-88
2.8136e-88
-4.89379e-88
4.80379e-88
-5.21256e-88
5.63606e-88
-3.26126e-88
5.78105e-88
-3.86259e-88
6.48057e-88
-6.18472e-88
7.23146e-88
-5.37393e-88
8.22986e-88
-7.10532e-88
8.18937e-88
-3.6159e-88
7.51216e-88
-1.44709e-88
6.51255e-88
-1.70945e-88
5.76901e-88
-1.01925e-88
5.35635e-88
-1.0611e-88
7.11704e-88
-7.99471e-88
1.01464e-87
-2.90226e-88
1.06761e-87
-7.25084e-88
9.91924e-88
-6.38325e-88
1.62545e-87
-1.07251e-87
2.11868e-87
-4.78236e-90
1.71742e-87
-4.63317e-88
1.86186e-87
-1.33987e-87
1.93313e-87
-7.83519e-88
2.48161e-87
-2.12798e-87
3.70118e-87
-3.61381e-87
4.76066e-87
-5.77604e-87
4.72839e-87
-4.65704e-87
5.2128e-87
-5.90197e-87
5.39759e-87
-5.63522e-87
7.10378e-87
-5.75811e-87
6.52473e-87
-3.8234e-87
1.02582e-86
-6.59342e-87
1.33883e-86
-9.19616e-88
1.09351e-86
-3.50428e-87
1.15598e-86
-8.61873e-87
1.37493e-86
-8.50712e-87
1.38145e-86
-4.94477e-87
1.29749e-86
-6.60646e-87
1.32192e-86
-5.59075e-87
1.57259e-86
4.37236e-88
1.27795e-86
-5.182e-88
1.15705e-86
-1.26036e-87
1.30698e-86
1.70076e-88
1.05874e-86
2.67248e-88
8.94843e-87
-1.30614e-87
1.12364e-86
2.49938e-87
8.27534e-87
5.60831e-88
7.32737e-87
-1.96007e-87
6.93397e-87
-1.85804e-87
6.1829e-87
-9.75462e-88
5.11472e-87
-1.01321e-87
4.68158e-87
-6.712e-88
4.71923e-87
1.25029e-87
3.89894e-87
-1.2571e-88
3.37801e-87
-1.5707e-88
2.68948e-87
-2.48908e-88
3.45244e-87
4.93049e-87
-1.48325e-85
1.95939e-85
-6.01295e-85
-1.43328e-84
4.53554e-85
-2.69237e-83
-3.43456e-83
-4.20983e-82
5.13333e-81
-1.42996e-80
5.53863e-78
-2.58573e-79
1.39232e-76
3.24398e-77
4.38066e-76
-2.37731e-77
9.12039e-75
-2.96763e-75
6.26015e-74
6.70594e-74
-1.94592e-73
-7.64158e-73
3.80932e-71
-3.77075e-72
1.12316e-69
2.16111e-70
2.88178e-68
8.85871e-69
-1.36066e-68
-2.56891e-67
-1.47822e-67
-1.00765e-66
-6.81379e-65
-9.10367e-06
-3.23684e-06
-1.58744e-07
-4.29362e-09
3.24191e-10
1.35915e-11
3.52479e-14
-3.78282e-15
-3.39821e-17
-1.03832e-19
-1.00677e-21
4.48663e-23
-7.46299e-25
-1.97702e-27
1.21543e-28
-1.48437e-31
-2.7087e-33
2.43847e-36
1.01215e-37
-6.53664e-40
1.33096e-42
8.23282e-45
-9.39761e-47
6.19193e-49
-4.66352e-51
4.74558e-53
-4.70388e-55
3.47862e-57
-1.94583e-59
6.73917e-62
-9.71066e-06
-1.29605e-10
-3.11103e-10
4.94409e-09
6.16317e-09
-1.94562e-08
-5.67864e-08
2.78353e-08
2.84853e-07
1.13612e-07
-2.47888e-06
-9.55254e-06
-1.84324e-05
-8.57651e-06
7.38419e-05
0.000342776
0.00100279
0.00233589
0.00472754
0.00863649
0.0144454
0.0228612
0.0340382
0.0476635
0.0648087
0.0838617
0.104553
0.125326
0.146493
0.165116
0.179237
0.187297
0.194082
0.192603
0.184368
0.169593
0.150751
0.128529
0.101561
0.0732729
0.0445672
0.0174324
-0.00835171
-0.0293079
-0.0443375
-0.0591914
-0.069098
-0.073367
-0.0769243
-0.0766246
-0.0724854
-0.0668963
-0.0611747
-0.0559194
-0.0491097
-0.0413177
-0.0354263
-0.0292845
-0.023813
-0.0192466
-0.0147609
-0.0118927
-0.00927541
-0.00703846
-0.00534308
-0.00405225
-0.0030725
-0.00228914
-0.00161708
-0.00119541
-0.000853279
-0.000597186
-0.00041865
-0.000296177
-0.000203276
-0.000138653
-9.24112e-05
-6.39466e-05
-4.29797e-05
-2.96514e-05
-1.53877e-05
-1.01457e-05
-6.39462e-12
1.73287e-11
3.96921e-12
3.32093e-11
1.86411e-11
7.63761e-12
1.11682e-10
-9.67011e-11
1.79444e-10
5.05174e-10
3.16589e-10
-4.09864e-10
-6.40722e-12
3.43336e-12
-5.3932e-12
1.34194e-12
1.75886e-13
-8.14918e-12
3.38667e-13
8.6303e-12
-9.95893e-12
3.75825e-12
3.92139e-11
-3.88828e-11
4.79118e-12
1.09135e-11
-2.96668e-11
2.06849e-11
4.20493e-11
-4.84762e-11
-1.69354e-11
-3.80119e-11
-4.68942e-11
-1.43569e-11
-2.8039e-11
4.29992e-11
7.84994e-12
2.61925e-11
4.82214e-11
-2.682e-11
-1.69213e-11
-7.1629e-12
3.77293e-13
1.35456e-11
2.47186e-11
7.08402e-11
1.14176e-10
1.55915e-10
1.93952e-11
-3.57557e-10
-9.16122e-11
-4.2603e-10
-2.28115e-10
-3.43517e-10
-4.23919e-10
2.65272e-11
-3.91503e-10
6.36252e-10
2.31488e-10
8.59037e-10
3.46457e-10
2.77408e-10
5.06358e-10
-1.31629e-09
-4.14614e-10
-3.30979e-09
-2.22959e-09
-4.24695e-09
-3.35814e-09
-2.53922e-09
-2.72614e-09
3.20976e-10
-7.33679e-10
1.59936e-09
1.98396e-09
-2.09176e-09
1.40077e-09
-1.33249e-08
-6.29791e-09
-2.80693e-08
-2.54815e-08
-3.817e-08
-5.24667e-08
-2.76488e-08
-7.78578e-08
3.39954e-08
-8.04943e-08
1.58919e-07
-4.66531e-08
3.46802e-07
3.92282e-08
5.32915e-07
1.58583e-07
6.07739e-07
2.19926e-07
3.79683e-07
8.12795e-08
-3.85691e-07
-5.06498e-07
-1.88075e-06
-1.8646e-06
-4.14887e-06
-4.3108e-06
-6.57575e-06
-8.10691e-06
-8.09975e-06
-1.33278e-05
-6.08744e-06
-1.90911e-05
3.49361e-06
-2.38019e-05
2.72646e-05
-2.5221e-05
7.53424e-05
-1.70851e-05
0.000163518
3.86509e-06
0.00030661
5.66217e-05
0.000530485
0.00014245
0.000868803
0.000289015
0.00134383
0.000513356
0.00200148
0.000827717
0.00291471
0.00128366
0.00408607
0.00192595
0.00558542
0.00272503
0.0075082
0.0037883
0.00982223
0.00511042
0.0126801
0.00668723
0.0159584
0.00866271
0.0200379
0.0108919
0.0245329
0.0136984
0.0296736
0.0166747
0.0357882
0.0203006
0.0421053
0.0242199
0.0490706
0.0282821
0.0572296
0.0330515
0.0655089
0.0383467
0.0740206
0.0433247
0.0837762
0.0490508
0.0927843
0.0544626
0.10199
0.0594488
0.112169
0.0649711
0.120225
0.0699328
0.130117
0.0749159
0.139825
0.0810713
0.147699
0.0855522
0.155423
0.0886536
0.160723
0.0913443
0.167294
0.0934452
0.171576
0.0953034
0.173626
0.0944357
0.176737
0.0944794
0.175692
0.091709
0.173581
0.087302
0.171984
0.0832799
0.165391
0.0770812
0.161164
0.0707926
0.155266
0.0657518
0.146578
0.0579325
0.137567
0.0483935
0.126252
0.0388138
0.116291
0.0281075
0.103913
0.0182554
0.0913326
0.00634066
0.0783526
-0.00346353
0.0652918
-0.0153904
0.0519715
-0.0266644
0.0389904
-0.0368949
0.0258194
-0.0468894
0.0139001
-0.0572471
0.00106221
-0.0658564
-0.010701
-0.0743597
-0.020959
-0.0824935
-0.0300629
-0.0892001
-0.0390203
-0.0956366
-0.0474554
-0.100523
-0.0538001
-0.104772
-0.0619795
-0.108032
-0.0653686
-0.110287
-0.0686136
-0.111217
-0.0731685
-0.112244
-0.0760313
-0.11243
-0.0762112
-0.111133
-0.0785802
-0.109862
-0.0770933
-0.107093
-0.0755946
-0.103647
-0.0757019
-0.100483
-0.071912
-0.0958804
-0.0702845
-0.09235
-0.0689987
-0.089103
-0.0663361
-0.0847649
-0.0634078
-0.080178
-0.059444
-0.0751715
-0.0564568
-0.0708794
-0.0534934
-0.0663299
-0.0490573
-0.0613304
-0.0468424
-0.0570622
-0.0425447
-0.0523151
-0.0388856
-0.0477919
-0.0364962
-0.0442795
-0.0333735
-0.0404527
-0.0299581
-0.0364749
-0.0276226
-0.0332515
-0.0250347
-0.0300629
-0.0226571
-0.0270828
-0.0201908
-0.024245
-0.0181913
-0.0217869
-0.0163376
-0.0194694
-0.0144052
-0.017224
-0.013055
-0.0154098
-0.0113674
-0.0135158
-0.00995342
-0.0118457
-0.00889157
-0.0105033
-0.00785959
-0.00926456
-0.00677681
-0.00804585
-0.00599559
-0.00706536
-0.00521522
-0.00614518
-0.00453279
-0.00532988
-0.00389872
-0.00459517
-0.00337395
-0.00398443
-0.0029175
-0.00343244
-0.00247451
-0.00291424
-0.00209669
-0.00246875
-0.00180812
-0.0021282
-0.00155077
-0.00182472
-0.00133872
-0.00157142
-0.00114614
-0.00134308
-0.000956732
-0.00112903
-0.000824367
-0.000962772
-0.000686029
-0.000804125
-0.000570249
-0.00067187
-0.000484705
-0.000567012
-0.000396975
-0.000467336
-0.000334468
-0.000393544
-0.000283614
-0.000333047
-0.000236601
-0.000278254
-0.000197407
-0.000231792
-0.000162943
-0.000192141
-0.000135923
-0.000160197
-0.000113154
-0.000132764
-9.20715e-05
-0.000108703
-7.72329e-05
-9.05713e-05
-6.31328e-05
-7.43406e-05
-5.21141e-05
-6.11606e-05
-4.3652e-05
-5.06364e-05
-3.54668e-05
-4.0934e-05
-2.77592e-05
-3.26109e-05
-2.25863e-05
-2.73875e-05
-2.16546e-05
-1.53285e-05
-2.36766e-05
-7.99315e-21
1.50794e-19
4.46176e-17
4.83562e-15
1.6821e-13
-1.2326e-12
2.65154e-11
2.78142e-09
1.1938e-07
2.27777e-08
1.50818e-06
1.15762e-06
4.30578e-07
0
-2.82913e-46
-4.38928e-38
-3.13535e-32
-2.82667e-28
-2.26109e-26
6.18556e-25
2.33091e-24
4.42549e-24
4.09926e-24
9.91657e-24
-7.5766e-24
5.70188e-25
-2.95538e-23
-9.2e-23
4.39956e-23
-3.78551e-23
-1.98619e-23
-3.3059e-23
-3.66386e-23
-6.543e-23
-8.89461e-23
-6.2805e-23
-6.09331e-23
-4.7532e-23
-2.61541e-23
-3.21454e-23
-2.03428e-22
-2.70343e-22
-1.8126e-22
-9.15491e-23
-8.23803e-23
-7.75976e-23
-2.69573e-22
-5.57324e-22
-8.3514e-22
-7.54722e-22
-6.45967e-22
-3.16002e-22
-9.94838e-23
3.10117e-22
4.19105e-22
6.87748e-22
7.60748e-22
5.12542e-22
4.07127e-22
2.54331e-22
1.23666e-22
2.3988e-23
-7.38902e-23
-1.15227e-22
-1.25022e-22
-9.09391e-23
-8.61935e-23
-5.80935e-23
-4.20184e-23
-2.97879e-23
-1.66168e-23
-1.023e-23
-5.98011e-24
-2.21565e-24
-7.10009e-25
1.87494e-25
7.11765e-25
9.27135e-25
8.4371e-25
7.43749e-25
6.22291e-25
3.21119e-25
3.08704e-25
2.47489e-25
2.09234e-25
1.89237e-25
1.13243e-25
9.28768e-26
5.91163e-26
5.85753e-27
-9.74301e-27
-2.53746e-26
-2.98761e-26
-2.81564e-26
-1.72304e-26
-1.20778e-26
-6.9529e-27
-2.84279e-27
-3.28115e-29
7.72749e-28
2.16237e-27
2.44453e-27
1.59524e-27
1.22471e-27
5.83721e-28
4.75176e-28
2.95582e-28
1.23615e-28
-4.32654e-30
3.73684e-28
5.55389e-27
2.95323e-24
-5.44146e-22
-8.634e-65
3.32611e-08
2.16154e-08
1.38572e-06
7.43181e-07
-2.67917e-07
-5.78459e-09
-1.55441e-10
-8.09385e-11
-1.48723e-12
1.8582e-14
4.46617e-16
1.8903e-18
1.34935e-20
-1.91666e-22
-9.36894e-25
9.6434e-26
-8.76059e-28
-5.57586e-30
3.69144e-32
1.03756e-34
-1.03483e-36
-9.38365e-40
5.31021e-41
-3.73487e-43
1.56264e-45
-2.99726e-48
-8.96198e-51
1.58921e-52
-1.49836e-54
1.33147e-56
-7.14698e-59
2.85674e-61
6.25124e-13
-4.99477e-64
-8.9144e-10
1.66151e-09
7.63686e-09
-2.9262e-09
-4.26636e-08
-4.14768e-08
1.50184e-07
3.40877e-07
-6.99489e-07
-5.4343e-06
-1.43591e-05
-1.82102e-05
1.82996e-05
0.000175736
0.000612696
0.00156045
0.00336378
0.00651504
0.0112754
0.0183515
0.0278917
0.0402771
0.0558282
0.0734834
0.093041
0.115685
0.135019
0.15423
0.172586
0.183842
0.19244
0.193116
0.187135
0.17952
0.160577
0.140324
0.114568
0.0866871
0.0586151
0.0312761
0.00592334
-0.0185474
-0.0367093
-0.0527186
-0.0649253
-0.0701127
-0.0771399
-0.0754813
-0.072644
-0.0713061
-0.0643321
-0.0586563
-0.051398
-0.0439006
-0.0386013
-0.0313059
-0.0257183
-0.0211259
-0.0167827
-0.0132889
-0.0105927
-0.00793287
-0.00628373
-0.00466474
-0.00353055
-0.00260405
-0.00188412
-0.00138746
-0.000989885
-0.000699141
-0.00050956
-0.00034893
-0.000239582
-0.000165828
-0.000111133
-7.69785e-05
-5.12278e-05
-3.52684e-05
-2.69509e-05
-1.15272e-11
-2.27107e-12
-1.32287e-11
-2.15557e-11
-1.87286e-11
-5.46139e-11
5.63947e-12
1.14623e-11
-2.01856e-10
2.1661e-10
1.78964e-10
-1.41827e-11
8.52938e-12
-6.8113e-12
-1.36671e-12
-1.02062e-12
1.06871e-11
-1.94754e-11
1.44632e-11
-7.97488e-12
-7.75719e-15
4.93876e-12
-2.69931e-18
-5.23212e-16
-3.62864e-14
-3.63138e-13
5.3104e-12
-3.1649e-10
-2.18555e-08
-3.92945e-07
6.02871e-17
0
-9.07047e-42
-1.89373e-35
-8.0149e-30
2.14694e-28
1.90861e-26
-1.95239e-24
-2.69294e-24
-5.25018e-24
-6.11222e-24
5.6554e-24
6.74574e-24
1.04806e-23
2.99644e-23
1.77506e-23
-9.75832e-23
-1.53926e-23
-4.40885e-23
-7.24973e-23
-4.20461e-23
-6.70844e-23
-1.05419e-22
-4.76679e-23
-8.16574e-23
-7.25264e-23
-9.67274e-23
-1.02681e-22
-7.68822e-23
-2.03982e-22
-2.34739e-22
-1.24514e-22
-5.72002e-23
-2.41691e-22
-4.3599e-22
-6.8537e-22
-7.80684e-22
-8.11897e-22
-5.41229e-22
-2.41449e-22
1.64617e-22
5.53655e-22
7.1472e-22
7.39017e-22
7.53961e-22
5.6018e-22
3.87347e-22
1.91605e-22
9.80058e-23
-1.70808e-23
-8.41043e-23
-1.05406e-22
-1.38719e-22
-8.74208e-23
-8.53689e-23
-4.7124e-23
-3.77706e-23
-2.49528e-23
-1.40139e-23
-7.74955e-24
-4.14167e-24
-1.42973e-24
-3.41333e-25
4.83369e-25
7.0897e-25
1.07003e-24
8.2294e-25
6.35692e-25
7.01288e-25
2.89967e-25
3.74846e-25
1.92762e-25
2.41405e-25
1.97393e-25
1.37502e-25
8.52713e-26
3.74917e-26
1.6618e-27
-1.74336e-26
-2.70672e-26
-2.70354e-26
-2.67004e-26
-1.6086e-26
-9.91165e-27
-4.46787e-27
-1.1133e-27
1.21906e-27
2.10286e-27
2.37867e-27
2.4467e-27
1.69743e-27
1.23904e-27
5.76348e-28
4.24329e-28
2.15252e-28
7.61556e-29
3.91742e-29
-1.94962e-27
-1.55672e-25
1.55196e-22
-3.22059e-64
0
-1.9977e-12
4.69685e-14
8.21071e-16
2.82641e-18
2.54609e-20
-4.79673e-22
1.695e-25
1.72389e-25
-1.77841e-27
-9.13533e-30
6.07239e-32
1.87698e-34
-1.89025e-36
-1.62605e-39
9.10262e-41
-6.29219e-43
2.69201e-45
-5.25809e-48
-1.45078e-50
2.62032e-52
-2.51319e-54
2.27516e-56
-1.25702e-58
5.41243e-61
-1.23646e-63
-4.23918e-10
5.07524e-09
4.34543e-09
-2.70895e-08
-5.07136e-08
7.23019e-08
3.87535e-07
7.23145e-08
-3.1568e-06
-1.26113e-05
-2.84774e-05
-3.83614e-05
-4.68785e-06
0.000156203
0.000597296
0.00151043
0.00321941
0.00591435
0.0101297
0.015967
0.0234554
0.0328801
0.044018
0.055964
0.0697624
0.0804532
0.0915572
0.100818
0.103462
0.104942
0.101906
0.0922612
0.0825406
0.0625923
0.043595
0.0204214
-0.00436149
-0.0266379
-0.0509722
-0.0712666
-0.0880824
-0.101321
-0.109821
-0.115849
-0.116538
-0.11584
-0.110415
-0.102772
-0.0958157
-0.0851384
-0.0765075
-0.0666
-0.0565146
-0.0485399
-0.0396262
-0.0321813
-0.026232
-0.0208209
-0.0163182
-0.0129242
-0.00976927
-0.00759074
-0.00563131
-0.00427706
-0.00316324
-0.00229634
-0.00167675
-0.00120002
-0.000848555
-0.000611847
-0.000419595
-0.000290386
-0.000200994
-0.000135218
-9.29373e-05
-6.24108e-05
-4.27191e-05
-3.09698e-05
2.52446e-12
-1.31383e-11
1.12705e-11
-3.79001e-11
2.77311e-11
8.16464e-11
-7.6921e-11
2.73417e-11
-6.63623e-12
2.58693e-12
-3.11308e-12
-6.93979e-13
-3.97031e-13
-7.94879e-12
1.48455e-12
1.37629e-13
-3.62592e-12
2.29945e-12
1.77389e-11
3.87412e-13
-8.79699e-13
1.67956e-11
3.97995e-09
2.14339e-07
0
4.36993e-36
9.08595e-31
2.19043e-27
1.37055e-25
2.87244e-25
-5.4265e-24
-5.08681e-24
6.30715e-24
-2.19722e-23
-1.40602e-23
-3.71247e-23
-2.2091e-23
5.06949e-23
-1.65107e-22
3.84769e-23
2.77788e-23
8.16827e-23
9.41738e-23
3.95822e-23
9.87377e-23
1.38485e-22
6.94906e-23
1.44562e-22
7.38623e-23
-9.25375e-23
9.02992e-23
-2.01883e-22
-3.22353e-22
5.87508e-23
3.32202e-22
5.22404e-22
6.63734e-22
3.35268e-22
-2.81481e-22
-8.01519e-22
-1.18892e-21
-1.32728e-21
-1.4223e-21
-1.10171e-21
-9.30335e-22
-5.39547e-22
-1.59123e-23
1.52263e-22
2.79964e-22
2.66495e-22
3.6036e-22
2.57932e-22
2.07063e-22
1.38612e-22
4.50588e-23
7.03552e-23
-2.5582e-24
8.92339e-24
-8.09341e-24
-1.12254e-23
-7.09015e-24
-3.97196e-24
-4.30813e-24
-2.32482e-24
-1.88491e-24
-1.09344e-24
-8.2986e-25
-3.35266e-25
-2.481e-25
-2.65677e-25
-4.3383e-26
-4.84364e-25
-5.4239e-25
-3.63434e-25
-1.25325e-25
-1.24333e-25
-6.35341e-26
2.21882e-26
5.81768e-26
5.04346e-26
4.84823e-26
3.29453e-26
2.07311e-26
2.23755e-27
-1.47572e-27
-8.32703e-27
-7.77802e-27
-7.49432e-27
-6.71646e-27
-4.96394e-27
-2.89243e-27
-1.05148e-27
-3.14411e-29
3.38333e-28
-2.24991e-28
3.91359e-28
2.57984e-28
4.44976e-28
4.38823e-28
-6.34015e-27
4.15379e-26
-4.05299e-23
-5.58314e-17
-1.88781e-19
-1.1641e-21
8.3656e-23
-1.51093e-24
-1.3659e-27
2.13698e-28
-2.42384e-31
-4.58619e-33
3.66332e-36
1.70794e-37
-1.14189e-39
2.45138e-42
1.28227e-44
-1.66929e-46
1.0774e-48
-8.62077e-51
8.80328e-53
-8.55601e-55
6.45294e-57
-3.70423e-59
1.46211e-61
-1.76189e-09
1.40871e-09
6.59986e-09
-8.23538e-09
-4.78598e-08
-1.86594e-08
2.29687e-07
4.13627e-07
-9.48408e-07
-6.96565e-06
-2.00625e-05
-3.60703e-05
-2.97385e-05
5.52401e-05
0.000339464
0.000981178
0.00225514
0.00446227
0.00779339
0.0128921
0.0195342
0.0278372
0.0384904
0.0500386
0.0626678
0.0752144
0.0869427
0.0968113
0.10358
0.10437
0.105205
0.0992387
0.0878736
0.0728012
0.0531397
0.0333784
0.00937305
-0.0156534
-0.0387705
-0.0606945
-0.0791965
-0.0950358
-0.105332
-0.113279
-0.116613
-0.11623
-0.113603
-0.107384
-0.0992444
-0.0901486
-0.0808444
-0.0720895
-0.0620261
-0.0524047
-0.0442313
-0.036083
-0.0292017
-0.0236213
-0.01827
-0.0145585
-0.0112921
-0.00860088
-0.00651135
-0.00490668
-0.00371746
-0.00274003
-0.00195651
-0.0014356
-0.00102348
-0.000722031
-0.000503592
-0.00035483
-0.000243597
-0.000166658
-0.000111696
-7.69572e-05
-5.19279e-05
-3.56967e-05
1.31929e-11
-5.7691e-12
5.64006e-12
1.33389e-11
-2.31043e-11
1.67045e-12
-9.3216e-11
-2.00683e-10
4.01998e-10
-6.7785e-12
8.31555e-13
-2.93275e-12
1.98393e-13
6.37238e-12
-1.34588e-11
7.43134e-12
-5.02468e-12
-3.00244e-18
-8.75e-16
-7.23352e-14
-1.28475e-12
1.37437e-11
-4.41144e-10
-3.5223e-08
-1.00675e-06
1.43848e-39
1.39912e-33
1.16376e-28
5.85265e-27
-7.29359e-25
3.701e-24
2.46896e-24
-1.5177e-24
-3.65449e-24
1.15874e-23
4.922e-23
4.22857e-23
4.72919e-23
6.65596e-23
1.38838e-22
7.45757e-23
9.21554e-23
1.67525e-22
4.60393e-23
5.79944e-23
1.45063e-22
1.17374e-22
2.66007e-22
1.52948e-22
4.08606e-23
-4.70009e-23
-2.43946e-22
-1.752e-22
1.49363e-22
2.23004e-22
4.90704e-22
6.57286e-22
5.96307e-22
1.02616e-22
-3.80407e-22
-7.60374e-22
-9.50992e-22
-1.54356e-21
-1.10572e-21
-1.22483e-21
-6.44971e-22
-2.07136e-22
-1.38463e-22
1.54892e-22
1.90682e-22
2.98914e-22
2.45862e-22
1.87359e-22
1.43857e-22
8.62668e-23
6.90747e-23
8.30041e-24
4.05663e-24
4.87483e-24
-1.26102e-23
-5.56795e-24
-5.98001e-24
-5.39843e-24
-2.99505e-24
-1.95092e-24
-1.72377e-24
-1.20107e-24
-6.64977e-25
-6.14093e-26
-1.44892e-25
-6.49167e-26
-4.49909e-25
-4.8258e-25
-1.95097e-25
-3.33253e-25
-1.54315e-25
-1.72291e-25
-4.73315e-27
7.20716e-26
2.80596e-26
4.99397e-26
3.8833e-26
2.78784e-26
9.96341e-27
3.14934e-27
-5.05317e-27
-6.95078e-27
-7.78745e-27
-7.90913e-27
-6.79837e-27
-3.98393e-27
-1.89385e-27
-1.13905e-27
-2.86713e-28
-8.40446e-28
6.9924e-29
6.44396e-29
3.66237e-28
3.88425e-28
3.4253e-28
2.61466e-26
2.06664e-24
-1.40206e-09
-6.86672e-14
2.36085e-11
7.85043e-10
-1.61773e-10
2.16587e-12
-1.11399e-09
-1.0368e-11
5.2848e-12
1.28573e-19
9.29655e-15
1.19433e-49
1.4136e-43
0
0
0
0
0
0
0
0
0
0
0
0
0
0
0
0
0
0
0
0
0
0
0
0
0
0
0
0
0
0
0
0
0
0
0
0
0
0
0
0
0
0
0
0
0
0
0
0
0
0
0
0
0
0
0
0
0
0
0
0
0
0
0
0
0
0
0
0
0
0
0
0
0
0
0
0
0
0
0
0
0
0
0
0
0
0
0
0
0
0
0
0
0
0
0
0
0
0
0
0
0
0
0
0
0
0
0
0
0
0
0
0
0
0
0
0
0
0
0
0
0
0
0
0
0
0
0
0
0
0
0
0
0
0
0
0
0
0
0
0
0
0
0
0
0
0
0
0
0
0
0
0
0
0
0
0
0
0
0
0
0
0
0
0
0
0
0
0
0
0
0
0
0
0
0
0
0
0
0
0
0
0
0
0
0
0
0
0
0
0
0
0
0
0
0
2.59316e-12
0
0
0
0
0
0
0
0
0
0
0
0
0
0
0
0
0
0
0
0
0
0
0
0
0
0
0
0
0
0
0
0
0
0
0
0
0
0
0
0
0
0
0
0
0
0
0
0
0
0
1.42283e-151
0
-1.70233e-139
-3.81735e-140
4.2823e-134
5.2093e-134
-7.25367e-129
4.40119e-132
-1.15307e-126
-1.39972e-126
-9.20097e-126
5.61205e-125
-2.53181e-121
4.52286e-123
-1.73211e-118
-2.77173e-118
-4.80409e-115
-6.0157e-115
-6.50665e-115
-8.38026e-115
3.09117e-115
-7.51678e-115
3.59427e-113
-4.97274e-115
3.91141e-112
6.29838e-113
4.53649e-111
-1.48453e-110
1.50508e-109
-2.04445e-109
5.28625e-108
5.93462e-108
3.52229e-107
-8.7719e-107
8.61201e-106
1.03756e-105
1.05415e-104
1.21784e-104
6.8764e-105
7.72793e-105
8.03091e-105
-1.06693e-104
6.99234e-104
7.43779e-104
6.78129e-103
8.03261e-103
5.27839e-103
5.04779e-103
3.74657e-101
4.4079e-101
4.79255e-101
5.59731e-101
3.12849e-101
3.61578e-101
5.02121e-101
3.47146e-101
1.61131e-100
1.87174e-100
1.6063e-100
1.7165e-100
5.19462e-100
5.51267e-100
3.3654e-100
3.8068e-100
2.38703e-100
1.86485e-100
4.80936e-99
5.82663e-99
5.44841e-99
-6.96546e-99
5.22184e-99
-3.71074e-99
8.90466e-99
-2.34242e-99
9.58876e-99
-1.38156e-98
3.36516e-97
-9.79645e-98
2.98577e-97
2.37803e-98
4.7334e-96
5.01964e-96
3.86941e-96
3.89976e-96
2.92677e-96
2.33927e-96
3.39434e-95
2.4914e-95
5.13785e-95
4.29964e-95
1.33788e-94
-2.7078e-94
4.02772e-94
1.82931e-94
6.46844e-94
5.84893e-94
8.10477e-94
7.36504e-94
5.49531e-94
4.66919e-94
8.72107e-94
4.85741e-94
6.3545e-94
2.93962e-94
4.9787e-94
8.62845e-95
9.58594e-94
6.73726e-94
1.40168e-93
1.25415e-93
1.00557e-93
7.38657e-94
2.96949e-93
2.28047e-93
3.40387e-93
3.2771e-93
2.4867e-93
1.32296e-93
3.492e-93
-2.05434e-93
5.88959e-93
1.46789e-93
5.78089e-93
-3.73002e-93
2.92503e-92
3.22989e-93
2.42297e-92
-8.0121e-94
2.70263e-92
-8.60893e-93
1.07973e-92
3.95487e-92
-6.51263e-93
6.2866e-92
-3.62362e-92
1.06594e-91
-9.77613e-92
1.7365e-91
-3.00946e-91
5.00506e-91
-3.60593e-91
5.69301e-91
-4.40654e-91
4.77657e-91
-9.06044e-91
2.26595e-91
-8.60859e-91
3.87641e-91
-7.06106e-91
-3.74843e-91
-2.15285e-91
-2.1928e-90
4.1924e-91
-3.49473e-90
1.90918e-90
-6.01583e-90
5.84315e-90
-1.6367e-89
1.16979e-89
-1.9924e-89
2.10346e-89
-4.51801e-89
6.69346e-89
-7.09755e-89
7.77807e-89
-1.08192e-88
9.06697e-89
-1.13325e-88
9.52344e-89
-9.96511e-89
1.61433e-88
-9.20823e-89
1.66987e-88
-1.34436e-88
1.67646e-88
-1.42557e-88
3.50777e-88
-4.05251e-88
5.37573e-88
-5.09042e-88
6.88738e-88
-8.51046e-88
1.0726e-87
-1.45189e-87
1.80532e-87
-8.9094e-88
1.84073e-87
-5.98006e-88
2.97163e-87
5.4337e-88
2.53593e-87
-1.03924e-87
2.0853e-87
-9.284e-88
2.27981e-87
-2.43076e-87
2.88248e-87
-2.82245e-87
6.72882e-87
-5.13514e-87
8.08788e-87
-8.07978e-87
1.85337e-86
-1.05015e-86
2.49252e-86
-1.11064e-86
2.34313e-86
-1.00957e-86
2.5353e-86
-1.79396e-86
3.16824e-86
-5.48667e-87
3.26734e-86
-1.4398e-86
3.83115e-86
4.83078e-87
3.12528e-86
-2.34089e-87
2.50899e-86
-4.34305e-87
2.27825e-86
-7.90957e-87
1.94509e-86
-1.00499e-86
1.96288e-86
-1.68175e-86
3.62377e-86
-9.66216e-87
3.5659e-86
-2.54425e-86
4.44776e-86
-2.36516e-86
4.21299e-86
-2.56542e-86
6.51408e-86
-1.30582e-86
5.93743e-86
-2.52232e-86
5.70154e-86
-2.47223e-86
7.60781e-86
-3.39011e-86
7.07091e-86
-2.68994e-86
1.07839e-85
-1.27956e-85
1.65949e-85
-1.09145e-85
2.2609e-85
-5.13212e-86
2.09529e-85
-6.18583e-86
2.45322e-85
-6.98291e-86
2.45712e-85
-1.15652e-85
2.8866e-85
-5.77674e-86
2.4637e-85
-1.03827e-85
3.75311e-85
-8.04263e-86
3.63522e-85
-1.85888e-85
3.44656e-85
-1.40344e-85
4.40857e-85
-1.69412e-85
4.87853e-85
-1.35924e-85
4.29562e-85
-1.28293e-85
4.28639e-85
-2.40367e-85
4.07419e-85
-8.8945e-86
3.78792e-85
-1.73901e-85
3.19738e-85
-1.41191e-85
2.99434e-85
-1.22977e-85
3.07741e-85
-2.55717e-86
2.47839e-85
-4.57822e-86
2.28674e-85
-2.49326e-86
2.28374e-85
1.02024e-86
1.84943e-85
-6.4061e-87
1.97975e-85
-1.50613e-86
1.85916e-85
-2.28301e-86
1.53685e-85
-1.22729e-86
1.28063e-85
-2.97567e-86
1.09494e-85
-6.34288e-87
8.69026e-86
-1.60308e-86
8.37868e-86
-1.92114e-86
7.31639e-86
-1.28015e-86
5.2268e-86
1.87331e-87
2.45218e-85
3.87566e-85
-2.69873e-84
3.51666e-84
2.20343e-83
2.20677e-83
5.3868e-82
-4.87931e-82
1.28704e-80
-1.59071e-80
4.77095e-79
-3.08736e-80
-7.92522e-77
-3.02927e-78
3.45243e-75
-1.4207e-76
4.38107e-75
-1.11939e-74
1.70972e-73
1.68596e-73
1.5301e-72
-4.64331e-73
8.22853e-71
2.82662e-71
-2.04044e-70
-2.94096e-70
2.40823e-68
-9.05145e-69
4.90866e-67
-5.48204e-68
-1.75703e-66
-1.81503e-66
3.56635e-66
-2.63278e-64
-1.31959e-66
-1.22529e-13
-5.28482e-09
-2.45015e-07
1.20257e-06
1.84197e-06
-4.08323e-07
-1.56544e-10
8.10112e-10
-3.08761e-10
7.66242e-16
2.01531e-11
2.44188e-18
2.5436e-20
-5.09624e-22
1.4449e-25
1.73482e-25
-1.72345e-27
-9.26994e-30
5.32299e-32
1.9664e-34
-1.72797e-36
-2.88419e-39
9.24625e-41
-6.14995e-43
2.54353e-45
-4.09654e-48
-2.20494e-50
3.42111e-52
-3.22401e-54
3.00316e-56
-1.61005e-58
6.93829e-61
-1.46888e-63
-7.36655e-64
-1.21294e-09
-5.78846e-12
1.51247e-09
3.37069e-09
-1.16083e-08
-4.0386e-08
-7.18143e-09
1.66124e-07
1.93031e-07
-1.0629e-06
-5.54236e-06
-1.36192e-05
-1.95637e-05
-4.54837e-06
7.43962e-05
0.000292592
0.00073392
0.00153776
0.00281502
0.00459175
0.00717093
0.010126
0.0131261
0.0168925
0.0196061
0.0220065
0.0229342
0.022079
0.0195247
0.0144458
0.00605108
-0.00082219
-0.0100775
-0.0207065
-0.030987
-0.0398258
-0.0469899
-0.0537908
-0.0584372
-0.0604459
-0.0589533
-0.0573515
-0.0533829
-0.0457814
-0.0409519
-0.0343816
-0.0275357
-0.0227478
-0.01651
-0.0120537
-0.00810585
-0.00484736
-0.00374139
-0.00177807
-0.000526575
0.000140244
0.000860867
0.00113692
0.00108198
0.00149563
0.00114448
0.00107276
0.000929339
0.000768036
0.000620708
0.000432683
0.000321281
0.000276682
0.00019556
0.000139519
0.00010072
7.67643e-05
5.13775e-05
3.63504e-05
2.71292e-05
2.09122e-05
1.3817e-05
8.18341e-06
3.97988e-06
-2.35097e-12
-1.91182e-05
3.93212e-13
5.2034e-12
-4.05345e-12
4.34425e-12
-3.10647e-11
6.46787e-11
6.37393e-12
-4.49934e-11
1.75541e-10
5.0137e-12
8.31255e-13
-3.46692e-12
-3.43852e-11
-3.52213e-12
-2.23739e-12
7.78589e-13
1.01945e-19
1.55258e-12
-3.85959e-13
3.77974e-12
-1.73703e-12
-3.5734e-12
3.78226e-12
-3.17476e-12
-1.65441e-13
-1.87757e-12
-2.44187e-13
-7.69139e-15
1.27022e-15
-9.14655e-10
-9.74086e-10
-1.6184e-12
-4.39718e-13
-2.75106e-11
5.242e-11
2.79594e-11
4.04846e-12
2.68556e-11
1.00856e-11
-3.6075e-12
2.79374e-11
2.10961e-11
3.3652e-11
2.79372e-11
7.91144e-12
3.50536e-11
-8.11868e-11
-2.07254e-11
-6.50586e-11
-5.71716e-11
-3.79425e-11
-4.05939e-11
3.46176e-11
-1.02286e-11
2.50293e-11
6.05081e-11
-4.9634e-11
1.51463e-10
2.69645e-11
2.85095e-11
7.2664e-11
1.08447e-10
5.16932e-11
3.00043e-10
3.43837e-10
4.22106e-10
4.97211e-12
6.79185e-10
-4.22552e-10
1.71121e-10
-1.10993e-09
2.16199e-10
-1.77652e-09
-7.81872e-11
-1.48546e-09
1.18099e-10
4.66489e-10
1.50595e-09
3.02133e-09
4.78681e-09
5.01225e-09
8.71452e-09
3.74532e-09
1.17202e-08
-3.64115e-09
1.14749e-08
-1.85468e-08
5.92015e-09
-3.70007e-08
-4.40146e-09
-5.08519e-08
-1.29472e-08
-4.28162e-08
-1.14237e-08
-7.80472e-09
1.41561e-08
6.28282e-08
7.73337e-08
1.46965e-07
1.7197e-07
1.68638e-07
2.72307e-07
1.17049e-08
3.05726e-07
-5.01349e-07
1.2443e-07
-1.57138e-06
-4.61275e-07
-3.36329e-06
-1.72215e-06
-5.89767e-06
-3.93667e-06
-8.96362e-06
-7.1719e-06
-1.19506e-05
-1.18293e-05
-1.31185e-05
-1.76144e-05
-1.0416e-05
-2.37938e-05
-2.06729e-07
-2.82804e-05
2.36714e-05
-3.0054e-05
6.80729e-05
-2.8507e-05
0.000139741
-1.03049e-05
0.000247379
1.66728e-05
0.000409275
6.56528e-05
0.00062961
0.000138331
0.000928698
0.00024311
0.00133865
0.000378168
0.00183362
0.000596988
0.00243934
0.000808483
0.00316423
0.00111115
0.00408042
0.00143557
0.00502621
0.00188152
0.00618185
0.00228879
0.00742752
0.00273128
0.00880174
0.0033722
0.0102379
0.00380055
0.0117751
0.00453826
0.0131452
0.00490409
0.0146563
0.00513084
0.0163588
0.0055169
0.017509
0.0060244
0.018641
0.0055746
0.0194899
0.00603908
0.0196887
0.00535098
0.0199559
0.00424712
0.0191579
0.00366424
0.0188764
0.00149694
0.0189158
0.000257365
0.0177421
-0.000519419
0.0160978
-0.0025777
0.0133643
-0.00464264
0.0110467
-0.0076476
0.00835996
-0.00983488
0.00430846
-0.0120964
0.00106127
-0.0162894
-0.00376835
-0.01791
-0.00883972
-0.0217562
-0.0131681
-0.025452
-0.0182138
-0.0274315
-0.0224666
-0.0315953
-0.0255796
-0.0335226
-0.0296123
-0.0345646
-0.0340851
-0.0366987
-0.0377939
-0.0382966
-0.0409924
-0.0395985
-0.0436263
-0.0401095
-0.0469173
-0.0408386
-0.0481964
-0.0410846
-0.0505376
-0.0407261
-0.0511309
-0.0398189
-0.0512132
-0.0381799
-0.051638
-0.0367026
-0.050991
-0.0350618
-0.0497044
-0.0318971
-0.0481273
-0.0298009
-0.0466734
-0.0269288
-0.0438209
-0.0240176
-0.041641
-0.0204308
-0.0389255
-0.0175448
-0.0360874
-0.0151016
-0.0338115
-0.0111971
-0.0304574