/*--------------------------------*- C++ -*----------------------------------*\
  =========                 |
  \\      /  F ield         | OpenFOAM: The Open Source CFD Toolbox
   \\    /   O peration     | Website:  https://openfoam.org
    \\  /    A nd           | Version:  7
     \\/     M anipulation  |
\*---------------------------------------------------------------------------*/
FoamFile
{
    version     2.0;
    format      ascii;
    class       volScalarField;
    location    "0.8";
    object      T;
}
// * * * * * * * * * * * * * * * * * * * * * * * * * * * * * * * * * * * * * //

dimensions      [0 0 0 1 0 0 0];

internalField   nonuniform List<scalar> 
10000
(
0.5
0.0669146
-0.0353169
-0.0277115
-0.00789976
0.00112931
0.00220711
0.000963794
3.88563e-05
-0.000206219
-0.000130475
-2.60559e-05
1.76156e-05
1.74837e-05
6.08561e-06
-9.06071e-07
-2.20759e-06
-1.13469e-06
-1.06163e-07
2.47859e-07
1.87024e-07
4.9395e-08
-2.13888e-08
-2.77866e-08
-1.17496e-08
4.15034e-10
3.66278e-09
2.25287e-09
3.96249e-10
-4.00522e-10
-3.77204e-10
-1.28468e-10
2.72483e-11
5.58372e-11
2.85372e-11
2.14231e-12
-7.09304e-12
-5.30847e-12
-1.37598e-12
6.83732e-13
8.64856e-13
3.65906e-13
-1.89318e-14
-1.23794e-13
-7.74988e-14
-1.5211e-14
1.23953e-14
1.2499e-14
5.0217e-15
7.61285e-16
6.14183e-16
1.78249e-15
2.17941e-15
1.44208e-15
1.84168e-16
-8.96423e-16
-1.43737e-15
-1.42572e-15
-1.04748e-15
-5.36566e-16
-7.99356e-17
2.20484e-16
3.45196e-16
3.31431e-16
2.40335e-16
1.29477e-16
3.72858e-17
-2.01603e-17
-4.39904e-17
-4.42901e-17
-3.28547e-17
-1.88602e-17
-7.47212e-18
-3.92593e-19
2.8119e-18
3.43269e-18
2.77006e-18
1.74855e-18
8.60925e-19
2.73685e-19
-3.05564e-20
-1.39091e-19
-1.41851e-19
-1.03696e-19
-6.09577e-20
-2.85519e-20
-9.03049e-21
3.64784e-22
3.52472e-21
3.61547e-21
2.62492e-21
1.54975e-21
7.53729e-22
2.78568e-22
4.52239e-23
-4.24392e-23
-5.80234e-23
-4.61838e-23
-2.93856e-23
-1.31729e-23
0.933085
0.5
0.14482
-0.0139075
-0.0411718
-0.0230289
-0.00507433
0.00215701
0.00250723
0.00101071
-9.38734e-08
-0.000255324
-0.000158213
-3.18213e-05
2.20241e-05
2.24005e-05
8.17946e-06
-9.48178e-07
-2.86443e-06
-1.56602e-06
-2.00131e-07
3.13491e-07
2.58847e-07
7.77035e-08
-2.39625e-08
-3.79444e-08
-1.77304e-08
-5.20299e-10
4.83208e-09
3.30976e-09
7.47241e-10
-4.84999e-10
-5.38961e-10
-2.10524e-10
2.14981e-11
7.68032e-11
4.42272e-11
6.23639e-12
-9.12456e-12
-7.90471e-12
-2.48816e-12
7.33855e-13
1.2398e-12
6.04072e-13
2.83258e-14
-1.64026e-13
-1.20438e-13
-3.58374e-14
5.73925e-15
8.06913e-15
-8.94608e-16
-4.40258e-15
-8.43844e-16
4.82375e-15
8.31939e-15
8.36042e-15
5.86971e-15
2.48203e-15
-4.58825e-16
-2.25964e-15
-2.83144e-15
-2.47476e-15
-1.64035e-15
-7.40103e-16
-4.12684e-17
3.55338e-16
4.77281e-16
4.17809e-16
2.79042e-16
1.37394e-16
3.28945e-17
-2.50287e-17
-4.50364e-17
-4.20238e-17
-2.944e-17
-1.60972e-17
-6.11438e-18
-3.21801e-19
2.12032e-18
2.51587e-18
1.98111e-18
1.22955e-18
6.04647e-19
2.03505e-19
-7.88689e-22
-7.47155e-20
-8.02691e-20
-5.97031e-20
-3.57312e-20
-1.73962e-20
-6.24014e-21
-7.22474e-22
1.31438e-21
1.60739e-21
1.24221e-21
7.68274e-22
3.9651e-22
1.64899e-22
4.66866e-23
-1.53566e-23
1.03532
0.85518
0.5
0.182448
0.00830364
-0.0419281
-0.032441
-0.0120093
3.84408e-05
0.00307766
0.00201936
0.000522644
-0.000189734
-0.000261936
-0.000118925
-6.07707e-06
2.86043e-05
2.02421e-05
5.19525e-06
-2.29056e-06
-2.95623e-06
-1.27806e-06
8.46554e-09
3.71768e-07
2.40892e-07
5.03709e-08
-3.68802e-08
-3.89006e-08
-1.47958e-08
1.67178e-09
5.45504e-09
3.1046e-09
4.35545e-10
-6.33136e-10
-5.48229e-10
-1.74177e-10
4.83611e-11
8.4188e-11
4.13496e-11
2.15819e-12
-1.10131e-11
-7.97462e-12
-1.97988e-12
1.09805e-12
1.34126e-12
5.75987e-13
-6.91695e-15
-1.67249e-13
-1.05193e-13
-2.4914e-14
1.32405e-15
-9.9554e-15
-2.46596e-14
-2.58932e-14
-1.49398e-14
-2.99256e-16
1.08839e-14
1.56976e-14
1.47257e-14
1.02584e-14
4.79688e-15
1.95181e-16
-2.63654e-15
-3.63706e-15
-3.28627e-15
-2.2513e-15
-1.1121e-15
-2.24515e-16
2.88652e-16
4.69012e-16
4.33117e-16
3.01364e-16
1.60121e-16
5.33656e-17
-8.24116e-18
-3.27289e-17
-3.42709e-17
-2.55995e-17
-1.50715e-17
-6.71897e-18
-1.57796e-18
8.51338e-19
1.54308e-18
1.3748e-18
9.29804e-19
5.07845e-19
2.13847e-19
4.94746e-20
-2.20071e-20
-4.0491e-20
-3.53232e-20
-2.35402e-20
-1.29032e-20
-5.71007e-21
-1.72933e-21
5.11326e-23
6.04529e-22
6.04659e-22
4.31978e-22
2.21356e-22
1.02771
1.01391
0.817552
0.5
0.206389
0.0268058
-0.0388677
-0.0384381
-0.0184166
-0.00302402
0.00284105
0.00282245
0.00118552
4.2633e-05
-0.000296282
-0.000211922
-6.02234e-05
1.88442e-05
2.95095e-05
1.43558e-05
1.17969e-06
-3.31264e-06
-2.541e-06
-7.3481e-07
2.46588e-07
3.7721e-07
1.7883e-07
8.57306e-09
-4.67553e-08
-3.3615e-08
-8.56666e-09
4.24374e-09
5.36576e-09
2.31171e-09
-5.87239e-11
-7.29435e-10
-4.68783e-10
-9.40052e-11
7.80728e-11
8.04037e-11
3.01627e-11
-4.13027e-12
-1.18978e-11
-6.72708e-12
-9.11337e-13
1.42639e-12
1.24574e-12
4.34622e-13
-4.0438e-14
-1.11033e-13
-2.62908e-14
3.01999e-14
1.87139e-14
-2.40575e-14
-5.69749e-14
-6.33174e-14
-4.74962e-14
-2.22049e-14
1.15221e-15
1.62416e-14
2.17344e-14
1.96423e-14
1.33966e-14
6.29822e-15
6.00653e-16
-2.74842e-15
-3.86579e-15
-3.45481e-15
-2.34023e-15
-1.16518e-15
-2.81847e-16
2.15002e-16
3.89394e-16
3.64544e-16
2.55378e-16
1.38751e-16
5.12656e-17
6.42394e-19
-2.0352e-17
-2.32502e-17
-1.80043e-17
-1.09886e-17
-5.25347e-18
-1.6276e-18
1.74961e-19
7.86909e-19
7.87479e-19
5.66258e-19
3.28753e-19
1.53303e-19
4.96564e-20
4.18715e-22
-1.61873e-20
-1.7056e-20
-1.24507e-20
-7.3805e-21
-3.62905e-21
-1.38859e-21
-2.98191e-22
2.33607e-22
1.0079
1.04117
0.991696
0.793611
0.5
0.223365
0.042154
-0.0343031
-0.0421139
-0.0239644
-0.00647534
0.00197761
0.00332499
0.00186777
0.000400612
-0.000245072
-0.000285991
-0.000129611
-8.12739e-06
3.15022e-05
2.39228e-05
7.25577e-06
-1.97863e-06
-3.44893e-06
-1.76137e-06
-1.8454e-07
3.9124e-07
3.18273e-07
9.93709e-08
-2.70434e-08
-4.76358e-08
-2.40385e-08
-2.00424e-09
5.81838e-09
4.51192e-09
1.29237e-09
-4.84177e-10
-7.13819e-10
-3.34201e-10
-9.50251e-12
9.45306e-11
6.64511e-11
1.60634e-11
-9.36901e-12
-1.12334e-11
-4.7899e-12
1.07527e-13
1.46366e-12
9.30102e-13
2.1431e-13
-5.5737e-14
5.76879e-15
1.23525e-13
1.51988e-13
9.05718e-14
-1.3476e-15
-7.22649e-14
-1.01351e-13
-9.27811e-14
-6.22796e-14
-2.6462e-14
2.79646e-15
2.00019e-14
2.51781e-14
2.17517e-14
1.42262e-14
6.41162e-15
5.65973e-16
-2.62267e-15
-3.54687e-15
-3.06401e-15
-2.01654e-15
-9.8556e-16
-2.47868e-16
1.49993e-16
2.84156e-16
2.64699e-16
1.84341e-16
1.00667e-16
3.90464e-17
3.70186e-18
-1.11877e-17
-1.38335e-17
-1.09927e-17
-6.86471e-18
-3.42331e-18
-1.21269e-18
-7.94136e-20
3.43659e-19
3.94078e-19
2.99654e-19
1.82267e-19
9.0787e-20
3.43995e-20
5.99158e-21
-4.9727e-21
-7.06928e-21
-5.69288e-21
-3.63994e-21
-1.61478e-21
0.998871
1.02303
1.04193
0.973194
0.776635
0.5
0.236308
0.0551561
-0.0291433
-0.0442026
-0.0286476
-0.0100134
0.000663016
0.00351519
0.00249279
0.000838178
-0.000110139
-0.000325109
-0.00020245
-4.98925e-05
2.37007e-05
3.12705e-05
1.49634e-05
1.26022e-06
-3.52123e-06
-2.80623e-06
-8.96015e-07
2.13495e-07
4.11962e-07
2.18731e-07
2.6977e-08
-4.67862e-08
-3.99564e-08
-1.32132e-08
2.98684e-09
5.9982e-09
3.17654e-09
3.4964e-10
-7.21187e-10
-5.9479e-10
-1.84998e-10
5.48993e-11
9.34073e-11
4.66898e-11
3.28755e-12
-1.19758e-11
-9.19111e-12
-2.74683e-12
7.08627e-13
1.08588e-12
3.58567e-13
-1.32329e-13
-1.21948e-13
1.20681e-13
3.11107e-13
3.40261e-13
2.40263e-13
9.22695e-14
-3.61237e-14
-1.11605e-13
-1.31118e-13
-1.09666e-13
-6.84299e-14
-2.61851e-14
5.2424e-15
2.17879e-14
2.53055e-14
2.06011e-14
1.27302e-14
5.3548e-15
2.67741e-16
-2.26966e-15
-2.86244e-15
-2.36676e-15
-1.5039e-15
-7.14884e-16
-1.7881e-16
9.75126e-17
1.8585e-16
1.70891e-16
1.17783e-16
6.42608e-17
2.56653e-17
3.78358e-18
-5.50205e-18
-7.40321e-18
-6.02007e-18
-3.82772e-18
-1.96846e-18
-7.59313e-19
-1.25107e-19
1.27444e-19
1.76462e-19
1.42376e-19
9.02911e-20
4.73148e-20
1.97849e-20
5.24625e-21
-7.94506e-22
-2.94424e-21
0.997793
1.00507
1.03244
1.03887
0.957846
0.763692
0.5
0.246668
0.0663827
-0.0238073
-0.0451887
-0.0325522
-0.0134733
-0.000959178
0.00341734
0.00301639
0.00131432
9.733e-05
-0.000320961
-0.000268331
-0.000102053
5.40097e-06
3.42592e-05
2.29965e-05
6.2179e-06
-2.43292e-06
-3.56994e-06
-1.78399e-06
-1.83405e-07
4.05355e-07
3.37003e-07
1.12392e-07
-2.33436e-08
-4.9923e-08
-2.74106e-08
-3.82702e-09
5.6432e-09
5.03278e-09
1.74446e-09
-3.29833e-10
-7.55228e-10
-4.16492e-10
-5.49926e-11
8.9365e-11
7.8018e-11
2.63153e-11
-5.52098e-12
-1.15625e-11
-6.16614e-12
-8.95263e-13
8.39841e-13
3.27848e-13
-4.84393e-13
-6.99161e-13
-3.72542e-13
1.07733e-13
4.45357e-13
5.45075e-13
4.5287e-13
2.6629e-13
7.46332e-14
-6.61883e-14
-1.3643e-13
-1.43959e-13
-1.11426e-13
-6.3997e-14
-2.09015e-14
7.96088e-15
2.11158e-14
2.22985e-14
1.69656e-14
9.83154e-15
3.79553e-15
-3.5526e-17
-1.76868e-15
-2.06014e-15
-1.6262e-15
-9.96551e-16
-4.59622e-16
-1.12472e-16
5.87414e-17
1.10443e-16
9.99742e-17
6.81281e-17
3.70682e-17
1.51209e-17
2.81787e-18
-2.42975e-18
-3.61829e-18
-3.01326e-18
-1.94765e-18
-1.02722e-18
-4.21575e-19
-9.76812e-20
3.78449e-20
7.14679e-20
6.18034e-20
4.08224e-20
2.26011e-20
7.75181e-21
0.999036
0.997843
1.01201
1.03844
1.0343
0.944844
0.753332
0.5
0.255249
0.0762288
-0.0184971
-0.0453946
-0.0357829
-0.0167686
-0.00277966
0.00306919
0.00341666
0.00179625
0.000362307
-0.000271062
-0.000319196
-0.000159502
-2.26983e-05
3.14482e-05
3.00039e-05
1.24139e-05
-5.01571e-08
-3.78026e-06
-2.69448e-06
-7.81473e-07
2.58291e-07
4.1876e-07
2.17163e-07
2.5954e-08
-4.75585e-08
-4.11123e-08
-1.42497e-08
2.56398e-09
6.11202e-09
3.45914e-09
5.3426e-10
-6.85054e-10
-6.36425e-10
-2.30187e-10
3.56573e-11
9.50166e-11
5.48939e-11
9.4393e-12
-9.34886e-12
-8.43039e-12
-2.42318e-12
8.80735e-13
8.04649e-13
-5.61346e-13
-1.50534e-12
-1.53008e-12
-9.27057e-13
-1.73263e-13
3.9915e-13
6.68268e-13
6.63899e-13
4.87825e-13
2.52498e-13
4.44756e-14
-9.04365e-14
-1.45046e-13
-1.38033e-13
-9.80606e-14
-5.09522e-14
-1.30461e-14
9.5581e-15
1.81216e-14
1.73637e-14
1.23256e-14
6.68138e-15
2.33745e-15
-2.0517e-16
-1.24189e-15
-1.33811e-15
-1.00965e-15
-5.97528e-16
-2.67584e-16
-6.3771e-17
3.27053e-17
6.0258e-17
5.3706e-17
3.62093e-17
1.9648e-17
8.15654e-18
1.77688e-18
-9.58748e-19
-1.63106e-18
-1.39538e-18
-9.16938e-19
-4.94562e-19
-2.13141e-19
-5.99232e-20
6.90926e-21
2.60314e-20
2.5001e-20
0.999961
0.997493
0.999962
1.01842
1.04211
1.02914
0.933617
0.744751
0.5
0.262537
0.0849758
-0.0133115
-0.0450396
-0.0384394
-0.0198576
-0.00471768
0.00251112
0.00368607
0.00225945
0.000669094
-0.000176905
-0.000349474
-0.000217239
-5.89605e-05
2.2113e-05
3.47796e-05
1.91931e-05
3.57793e-06
-3.2318e-06
-3.45354e-06
-1.52336e-06
-4.80473e-08
4.29811e-07
3.2249e-07
9.90302e-08
-2.79562e-08
-5.00298e-08
-2.68178e-08
-3.61804e-09
5.65294e-09
5.07214e-09
1.82098e-09
-2.80927e-10
-7.54501e-10
-4.40324e-10
-7.59906e-11
8.12453e-11
7.91225e-11
3.02155e-11
-2.06878e-12
-8.72466e-12
-3.31563e-12
1.95305e-12
3.02393e-12
1.18613e-12
-1.11663e-12
-2.43206e-12
-2.51843e-12
-1.79104e-12
-7.93636e-13
7.01447e-14
6.02471e-13
7.79471e-13
6.87151e-13
4.54846e-13
2.01732e-13
5.65115e-15
-1.03993e-13
-1.35398e-13
-1.15879e-13
-7.50542e-14
-3.47168e-14
-5.87941e-15
9.31652e-15
1.3798e-14
1.20659e-14
8.0084e-15
4.06112e-15
1.27202e-15
-2.38893e-16
-7.90271e-16
-7.92748e-16
-5.73529e-16
-3.28644e-16
-1.43234e-16
-3.33063e-17
1.6836e-17
3.04404e-17
2.67578e-17
1.78749e-17
9.68149e-18
4.08371e-18
9.99545e-19
-3.31539e-19
-6.82611e-19
-6.02921e-19
-4.03253e-19
-2.21915e-19
-1.01319e-19
-1.86527e-20
1.00021
0.998989
0.996922
1.00302
1.02396
1.0442
1.02381
0.923771
0.737463
0.5
0.268847
0.0928295
-0.00829713
-0.0442768
-0.0406094
-0.0227243
-0.00671456
0.00178129
0.00382595
0.00268654
0.001003
-4.24486e-05
-0.000355818
-0.000270828
-0.000101219
6.15712e-06
3.63676e-05
2.58328e-05
8.25193e-06
-1.80508e-06
-3.89324e-06
-2.32337e-06
-5.09073e-07
3.42821e-07
4.06035e-07
1.88693e-07
1.12937e-08
-4.98814e-08
-3.91881e-08
-1.26362e-08
3.05697e-09
6.05639e-09
3.34791e-09
5.0163e-10
-6.76819e-10
-6.31336e-10
-2.3691e-10
2.52528e-11
8.7208e-11
5.05612e-11
7.62758e-12
-8.91406e-12
-5.52439e-12
2.6219e-12
6.81864e-12
5.99039e-12
2.60354e-12
-7.85841e-13
-2.847e-12
-3.38079e-12
-2.79962e-12
-1.68847e-12
-5.53125e-13
2.88054e-13
7.19774e-13
7.8649e-13
6.19432e-13
3.63897e-13
1.2954e-13
-2.8219e-14
-1.01516e-13
-1.1087e-13
-8.55523e-14
-5.03839e-14
-2.03827e-14
-1.21316e-15
7.63514e-15
9.39395e-15
7.56285e-15
4.71213e-15
2.2383e-15
6.19121e-16
-1.95691e-16
-4.59379e-16
-4.32423e-16
-3.01118e-16
-1.67593e-16
-7.13164e-17
-1.62726e-17
8.02952e-18
1.43373e-17
1.24616e-17
8.26362e-18
4.4731e-18
1.91593e-18
5.14554e-19
-9.50304e-20
-2.66344e-19
-2.45269e-19
-1.54116e-19
1.00013
1
0.997981
0.997159
1.00648
1.02865
1.04519
1.0185
0.915024
0.731153
0.5
0.274394
0.0999444
-0.00347339
-0.0432147
-0.0423674
-0.025367
-0.00872811
0.000913719
0.00384278
0.00306586
0.00135109
0.000126998
-0.000336704
-0.000316604
-0.000147094
-1.60181e-05
3.41025e-05
3.16251e-05
1.36644e-05
5.30393e-07
-3.87081e-06
-3.0801e-06
-1.09846e-06
1.40984e-07
4.45232e-07
2.83651e-07
6.95994e-08
-3.71385e-08
-4.84943e-08
-2.35649e-08
-1.97272e-09
5.87429e-09
4.81838e-09
1.62662e-09
-3.28353e-10
-7.33756e-10
-4.18384e-10
-7.2231e-11
7.20944e-11
6.54128e-11
1.69169e-11
-1.22085e-11
-1.38186e-11
-2.54671e-12
7.77499e-12
1.16499e-11
9.8562e-12
5.37638e-12
8.28205e-13
-2.34352e-12
-3.74494e-12
-3.65285e-12
-2.65338e-12
-1.36317e-12
-2.46843e-13
4.60538e-13
7.35931e-13
6.91371e-13
4.83763e-13
2.47185e-13
6.17871e-14
-4.57863e-14
-8.48573e-14
-8.00577e-14
-5.60398e-14
-2.99774e-14
-1.03436e-14
9.28668e-16
5.41915e-15
5.77713e-15
4.32107e-15
2.5389e-15
1.13168e-15
2.71709e-16
-1.31663e-16
-2.45952e-16
-2.18977e-16
-1.47364e-16
-7.99308e-17
-3.33309e-17
-7.52302e-18
3.55698e-18
6.3329e-18
5.45942e-18
3.6011e-18
1.95094e-18
8.47347e-19
2.53756e-19
-7.27853e-20
1.00003
1.00026
0.999477
0.997178
0.998022
1.01001
1.03255
1.04539
1.01331
0.90717
0.725606
0.5
0.279329
0.106439
0.00115474
-0.041932
-0.0437761
-0.0277924
-0.0107283
-6.2262e-05
0.00374582
0.00339021
0.00170247
0.000325544
-0.000292008
-0.000351728
-0.000194215
-4.36511e-05
2.76072e-05
3.59344e-05
1.94425e-05
3.72374e-06
-3.28056e-06
-3.68834e-06
-1.77217e-06
-1.80246e-07
4.20167e-07
3.69979e-07
1.43349e-07
-9.59702e-09
-5.17629e-08
-3.49139e-08
-9.34693e-09
4.07362e-09
5.85935e-09
2.96778e-09
3.23038e-10
-6.79654e-10
-5.77138e-10
-1.96162e-10
3.70162e-11
7.77483e-11
3.00856e-11
-1.63207e-11
-3.05041e-11
-2.02002e-11
-2.74487e-12
1.02941e-11
1.54287e-11
1.4085e-11
9.27299e-12
3.73233e-12
-7.31131e-13
-3.31471e-12
-4.03362e-12
-3.41552e-12
-2.1646e-12
-8.88364e-13
4.83038e-14
5.36152e-13
6.46336e-13
5.2824e-13
3.27203e-13
1.41622e-13
1.57784e-14
-4.64028e-14
-6.1682e-14
-5.14865e-14
-3.29164e-14
-1.59697e-14
-4.50708e-15
1.42385e-15
3.40885e-15
3.24269e-15
2.27237e-15
1.26487e-15
5.30104e-16
1.07978e-16
-7.71293e-17
-1.22233e-16
-1.03687e-16
-6.77041e-17
-3.59087e-17
-1.473e-17
-3.31929e-18
1.46687e-18
2.63638e-18
2.26075e-18
1.49955e-18
6.81886e-19
0.999982
1.00016
1.00019
0.998814
0.996675
0.999337
1.01347
1.03578
1.04504
1.0083
0.900056
0.720671
0.5
0.283765
0.112406
0.00559006
-0.0404869
-0.0448875
-0.0300111
-0.0126941
-0.0011218
0.00354557
0.00365566
0.00204819
0.000547226
-0.000222631
-0.000374148
-0.000240368
-7.5744e-05
1.67653e-05
3.82309e-05
2.51857e-05
7.65639e-06
-2.05941e-06
-4.049e-06
-2.47373e-06
-6.13084e-07
3.1574e-07
4.32726e-07
2.2628e-07
3.3275e-08
-4.63169e-08
-4.47977e-08
-1.85631e-08
3.72816e-10
6.07484e-09
4.31458e-09
1.24652e-09
-4.26527e-10
-6.73024e-10
-3.27718e-10
-9.38865e-12
9.86089e-11
6.32386e-11
-4.95399e-12
-4.50691e-11
-4.84715e-11
-3.05512e-11
-8.22763e-12
8.60715e-12
1.68915e-11
1.76256e-11
1.35037e-11
7.45733e-12
1.8298e-12
-2.02042e-12
-3.74578e-12
-3.74271e-12
-2.74882e-12
-1.47999e-12
-4.17886e-13
2.36814e-13
4.98371e-13
4.89954e-13
3.52524e-13
1.92616e-13
6.74511e-14
-6.56065e-15
-3.69064e-14
-3.96488e-14
-2.98262e-14
-1.75208e-14
-7.68366e-15
-1.63792e-15
1.18104e-15
1.93456e-15
1.67723e-15
1.10943e-15
5.87614e-16
2.32037e-16
3.88493e-17
-4.05598e-17
-5.67834e-17
-4.61964e-17
-2.93792e-17
-1.52864e-17
-6.19289e-18
-1.40287e-18
5.41721e-19
1.15145e-18
0.999983
1.00003
1.00026
0.999957
0.998132
0.996485
1.00096
1.01677
1.03844
1.04428
1.00347
0.893561
0.716235
0.5
0.287787
0.11792
0.00983944
-0.0389223
-0.0457452
-0.0320359
-0.0146108
-0.00224409
0.00325288
0.00386074
0.00238115
0.000786327
-0.00013018
-0.000382519
-0.00028358
-0.000111168
1.68149e-06
3.81078e-05
3.04963e-05
1.21584e-05
-1.87578e-07
-4.07657e-06
-3.1397e-06
-1.13857e-06
1.23034e-07
4.57448e-07
3.10105e-07
9.02134e-08
-3.01157e-08
-5.11441e-08
-2.87278e-08
-5.26917e-09
5.11493e-09
5.40314e-09
2.3465e-09
2.51637e-11
-6.91064e-10
-4.66685e-10
-7.40683e-11
1.29933e-10
1.33896e-10
5.03048e-11
-2.81465e-11
-6.57115e-11
-6.5785e-11
-4.52078e-11
-1.94033e-11
2.05995e-12
1.50482e-11
1.9314e-11
1.6986e-11
1.11869e-11
4.84703e-12
-7.0448e-14
-2.79891e-12
-3.53354e-12
-2.9728e-12
-1.88241e-12
-8.26311e-13
-8.58341e-14
2.90627e-13
3.86547e-13
3.24289e-13
2.07407e-13
9.91992e-14
2.54434e-14
-1.26124e-14
-2.48301e-14
-2.28864e-14
-1.57348e-14
-8.53307e-15
-3.36104e-15
-4.48808e-16
7.70315e-16
1.00443e-15
8.06268e-16
5.06705e-16
2.56439e-16
9.56274e-17
1.25685e-17
-1.9513e-17
-2.48101e-17
-1.94727e-17
-1.20943e-17
-6.28341e-18
-1.76588e-18
0.999994
0.999978
1.00012
1.0003
0.999599
0.997507
0.996583
1.00278
1.01986
1.04061
1.04321
0.998845
0.887594
0.712213
0.5
0.291459
0.123039
0.0139117
-0.0372711
-0.0463857
-0.0338802
-0.0164687
-0.00341188
0.00287833
0.00400571
0.00269582
0.00103755
-1.67195e-05
-0.000376094
-0.000322165
-0.000148743
-1.73631e-05
3.52842e-05
3.50019e-05
1.7025e-05
2.3144e-06
-3.70406e-06
-3.70485e-06
-1.72852e-06
-1.60065e-07
4.31504e-07
3.85278e-07
1.58227e-07
-2.01017e-09
-5.19198e-08
-3.86271e-08
-1.26085e-08
2.7532e-09
5.9774e-09
3.49666e-09
6.45172e-10
-6.4286e-10
-6.45316e-10
-2.04348e-10
1.3305e-10
2.29592e-10
1.65574e-10
5.53825e-11
-3.1709e-11
-7.49089e-11
-8.0197e-11
-6.20824e-11
-3.46927e-11
-8.6735e-12
9.68389e-12
1.83702e-11
1.87542e-11
1.40432e-11
7.6625e-12
2.12021e-12
-1.40095e-12
-2.8468e-12
-2.80425e-12
-2.02023e-12
-1.09255e-12
-3.58624e-13
7.62287e-14
2.50393e-13
2.5795e-13
1.8997e-13
1.08648e-13
4.47464e-14
6.23633e-15
-1.09509e-14
-1.46786e-14
-1.20211e-14
-7.63415e-15
-3.83475e-15
-1.34214e-15
-4.90793e-17
4.32884e-16
4.82449e-16
3.62922e-16
2.17943e-16
1.0581e-16
3.73549e-17
3.587e-18
-8.70495e-18
-1.02607e-17
-7.39911e-18
1
0.999978
1.00001
1.00021
1.00025
0.999162
0.996984
0.996931
1.00472
1.02272
1.04237
1.04193
0.99441
0.88208
0.708541
0.5
0.294834
0.127814
0.0178165
-0.035558
-0.0468395
-0.0355575
-0.0182615
-0.00461091
0.00243196
0.00409206
0.00298801
0.00129613
0.000115423
-0.000354624
-0.00035473
-0.000187304
-3.99542e-05
2.95993e-05
3.83716e-05
2.20318e-05
5.39077e-06
-2.88566e-06
-4.10653e-06
-2.34794e-06
-5.2889e-07
3.45045e-07
4.41783e-07
2.32807e-07
3.80875e-08
-4.53657e-08
-4.68549e-08
-2.11257e-08
-1.05855e-09
5.8597e-09
4.60632e-09
1.43167e-09
-5.19466e-10
-8.98655e-10
-4.81667e-10
1.10174e-11
2.72615e-10
3.0253e-10
2.08246e-10
8.57656e-11
-1.28724e-11
-7.03679e-11
-8.84227e-11
-7.74698e-11
-5.10008e-11
-2.16725e-11
1.5614e-12
1.47348e-11
1.83123e-11
1.53905e-11
9.68045e-12
4.08161e-12
1.28021e-13
-1.86488e-12
-2.31829e-12
-1.8973e-12
-1.18228e-12
-5.34281e-13
-1.00498e-13
1.15274e-13
1.75123e-13
1.51545e-13
9.97623e-14
5.11001e-14
1.7535e-14
-4.77074e-16
-7.27229e-15
-7.80655e-15
-5.81003e-15
-3.43612e-15
-1.60186e-15
-4.897e-16
4.36284e-17
2.18069e-16
2.16331e-16
1.53964e-16
8.88032e-17
4.14651e-17
1.42817e-17
-1.7956e-18
1
0.999992
0.999971
1.00006
1.00029
1.00011
0.998686
0.996583
0.997489
1.00671
1.02537
1.04378
1.04049
0.990161
0.876961
0.705166
0.5
0.297951
0.132283
0.0215636
-0.0338022
-0.0471324
-0.0370806
-0.0199854
-0.00582946
0.00192307
0.00412207
0.00325471
0.00155785
0.0002638
-0.000318255
-0.000380175
-0.000225738
-6.55836e-05
2.10018e-05
4.03256e-05
2.69479e-05
8.95689e-06
-1.59756e-06
-4.28824e-06
-2.95748e-06
-9.72498e-07
1.91684e-07
4.69896e-07
3.08252e-07
8.91255e-08
-3.02272e-08
-5.20075e-08
-3.01262e-08
-6.21622e-09
4.96864e-09
5.66742e-09
2.48315e-09
-2.02096e-10
-1.17388e-09
-9.49047e-10
-3.51505e-10
1.23179e-10
3.41412e-10
3.56764e-10
2.64284e-10
1.3873e-10
2.56431e-11
-5.19718e-11
-8.77033e-11
-8.7511e-11
-6.47575e-11
-3.43406e-11
-7.78341e-12
9.09374e-12
1.57772e-11
1.50214e-11
1.0551e-11
5.44426e-12
1.47178e-12
-8.17989e-13
-1.65603e-12
-1.58081e-12
-1.11146e-12
-5.99844e-13
-2.15075e-13
6.0726e-15
9.5586e-14
1.05274e-13
7.97819e-14
4.74843e-14
2.17047e-14
5.79584e-15
-1.80779e-15
-4.11503e-15
-3.79692e-15
-2.60834e-15
-1.44566e-15
-6.25885e-16
-1.62623e-16
4.30497e-17
1.00688e-16
9.11896e-17
6.2451e-17
2.91879e-17
1
1
0.99998
0.999981
1.00013
1.00033
0.999903
0.998204
0.996314
0.998219
1.00873
1.02779
1.04489
1.03892
0.986088
0.872186
0.702049
0.5
0.300845
0.136483
0.0251626
-0.0320184
-0.0472861
-0.0384617
-0.0216386
-0.00705794
0.0013602
0.00409858
0.0034938
0.00181902
0.00042595
-0.000267441
-0.000397667
-0.000263018
-9.36835e-05
9.53536e-06
4.06398e-05
3.15468e-05
1.29059e-05
1.62693e-07
-4.20213e-06
-3.51589e-06
-1.47451e-06
-3.11131e-08
4.60891e-07
3.78102e-07
1.48968e-07
-5.92037e-09
-5.29003e-08
-3.89272e-08
-1.26087e-08
3.21082e-09
6.69064e-09
3.99311e-09
5.95929e-10
-1.22256e-09
-1.48236e-09
-9.70805e-10
-3.38767e-10
1.17033e-10
3.44992e-10
3.92385e-10
3.25275e-10
2.03658e-10
7.64222e-11
-2.24166e-11
-7.71689e-11
-8.96222e-11
-7.30748e-11
-4.42114e-11
-1.65402e-11
2.6141e-12
1.178e-11
1.31665e-11
1.02413e-11
6.03418e-12
2.41122e-12
9.24982e-14
-9.70026e-13
-1.16775e-12
-9.29606e-13
-5.71421e-13
-2.6426e-13
-6.55758e-14
3.23419e-14
6.19445e-14
5.61195e-14
3.81625e-14
2.06703e-14
8.3446e-15
1.4659e-15
-1.4416e-15
-2.07429e-15
-1.7097e-15
-1.0964e-15
-5.72306e-16
-2.29992e-16
-4.84115e-17
2.52357e-17
4.70858e-17
1
1
0.999995
0.99997
1.00001
1.0002
1.00032
0.999638
0.997741
0.996174
0.999086
1.01073
1.03001
1.04575
1.03727
0.982184
0.867717
0.699155
0.5
0.303542
0.14044
0.0286225
-0.0302183
-0.0473191
-0.0397121
-0.0232206
-0.00828853
0.000751047
0.00402473
0.00370393
0.00207651
0.00059947
-0.000202868
-0.000406618
-0.000298222
-0.000123655
-4.6763e-06
3.91468e-05
3.56145e-05
1.71156e-05
2.3778e-06
-3.81071e-06
-3.98215e-06
-2.01416e-06
-3.21901e-07
4.07682e-07
4.35694e-07
2.14656e-07
2.74887e-08
-4.86718e-08
-4.70192e-08
-2.0321e-08
2.47146e-10
7.47262e-09
6.06598e-09
2.23462e-09
-5.91521e-10
-1.69411e-09
-1.61882e-09
-1.06269e-09
-4.59764e-10
8.17143e-12
2.93472e-10
4.044e-10
3.77317e-10
2.66255e-10
1.29425e-10
1.31681e-11
-5.8345e-11
-8.32981e-11
-7.45518e-11
-4.96447e-11
-2.31774e-11
-3.45916e-12
7.20571e-12
1.0356e-11
8.988e-12
5.88396e-12
2.86479e-12
7.42751e-13
-3.79968e-13
-7.50992e-13
-6.97177e-13
-4.81326e-13
-2.60334e-13
-1.00092e-13
-9.55714e-15
2.79455e-14
3.43284e-14
2.70689e-14
1.67692e-14
8.28769e-15
2.89508e-15
1.59528e-16
-8.45993e-16
-9.54328e-16
-7.19625e-16
-4.34074e-16
-2.17752e-16
-5.30112e-17
1
1
1
0.999986
0.999968
1.00005
1.00027
1.00027
0.999331
0.997313
0.996157
1.00006
1.01269
1.03204
1.04639
1.03556
0.978436
0.863517
0.696458
0.5
0.306067
0.144179
0.0319521
-0.0284107
-0.0472471
-0.0408424
-0.0247318
-0.00951485
0.000102559
0.00390383
0.00388439
0.00232765
0.000782063
-0.000125388
-0.000406654
-0.000330536
-0.00015489
-2.1445e-05
3.57347e-05
3.89561e-05
2.1454e-05
5.01301e-06
-3.08782e-06
-4.31741e-06
-2.5675e-06
-6.75408e-07
3.05312e-07
4.74784e-07
2.82891e-07
6.95984e-08
-3.8592e-08
-5.39835e-08
-2.96832e-08
-4.70369e-09
7.2808e-09
8.35526e-09
4.82545e-09
1.16354e-09
-1.01023e-09
-1.77578e-09
-1.69748e-09
-1.24111e-09
-6.80031e-10
-1.68761e-10
2.00586e-10
3.88023e-10
4.07335e-10
3.1326e-10
1.74718e-10
4.85212e-11
-3.46696e-11
-7.00687e-11
-6.94777e-11
-5.01638e-11
-2.68256e-11
-8.16279e-12
2.90294e-12
7.21644e-12
7.17657e-12
5.17652e-12
2.87562e-12
1.09789e-12
4.87351e-14
-3.96723e-13
-4.66711e-13
-3.64541e-13
-2.22698e-13
-1.05599e-13
-3.14026e-14
5.28788e-15
1.74022e-14
1.69326e-14
1.1984e-14
6.82922e-15
3.07655e-15
8.95088e-16
-1.11359e-16
-4.22682e-16
-4.0872e-16
-2.62173e-16
1
1
1
0.999999
0.999976
0.999976
1.0001
1.00032
1.00018
0.998997
0.996934
0.996254
1.00112
1.01461
1.03388
1.04684
1.0338
0.974837
0.85956
0.693933
0.5
0.308436
0.147722
0.0351593
-0.0266028
-0.0470838
-0.0418621
-0.0261734
-0.0107318
-0.000579061
0.00373921
0.00403491
0.00257022
0.000971575
-3.59692e-05
-0.000397589
-0.000359261
-0.000186791
-4.05322e-05
3.0343e-05
4.13993e-05
2.57853e-05
8.01881e-06
-2.01895e-06
-4.48669e-06
-3.10888e-06
-1.08312e-06
1.51061e-07
4.89968e-07
3.5054e-07
1.20199e-07
-2.1516e-08
-5.89767e-08
-4.08886e-08
-1.27147e-08
4.73706e-09
9.72649e-09
7.77965e-09
4.0337e-09
9.90593e-10
-8.15298e-10
-1.62352e-09
-1.75919e-09
-1.46434e-09
-9.38705e-10
-3.71343e-10
8.32994e-11
3.43015e-10
4.07845e-10
3.36066e-10
2.04924e-10
7.79085e-11
-1.03638e-11
-5.27857e-11
-5.94746e-11
-4.63784e-11
-2.73849e-11
-1.1011e-11
-5.26504e-13
4.28996e-12
5.2078e-12
4.15962e-12
2.56541e-12
1.19379e-12
3.03873e-13
-1.3704e-13
-2.72661e-13
-2.49192e-13
-1.70501e-13
-9.3016e-14
-3.80465e-14
-7.14064e-15
6.08817e-15
9.11178e-15
7.60553e-15
4.9227e-15
2.5963e-15
1.05936e-15
2.48738e-16
-1.75834e-16
1
1
1
1
0.999993
0.999969
0.999995
1.00016
1.00035
1.00004
0.998649
0.99661
0.996454
1.00224
1.01647
1.03556
1.04713
1.03202
0.971377
0.855821
0.691564
0.5
0.310668
0.151087
0.0382517
-0.0248
-0.0468406
-0.0427801
-0.0275469
-0.0119352
-0.00128828
0.0035342
0.00415565
0.00280238
0.00116601
6.43518e-05
-0.000379392
-0.000383812
-0.000218782
-6.16625e-05
2.29584e-05
4.27976e-05
2.99743e-05
1.13338e-05
-6.01022e-07
-4.46018e-06
-3.61248e-06
-1.53435e-06
-5.60809e-08
4.76505e-07
4.14693e-07
1.79593e-07
4.72961e-09
-5.98841e-08
-5.30846e-08
-2.43911e-08
-1.73959e-09
8.32112e-09
9.54347e-09
7.09067e-09
4.05998e-09
1.5546e-09
-2.43519e-10
-1.35027e-09
-1.79317e-09
-1.6673e-09
-1.17233e-09
-5.59306e-10
-3.97365e-11
2.75149e-10
3.78792e-10
3.323e-10
2.16638e-10
9.74704e-11
1.07912e-11
-3.46404e-11
-4.68233e-11
-3.96093e-11
-2.53828e-11
-1.20024e-11
-2.80991e-12
1.92808e-12
3.39877e-12
3.06787e-12
2.08082e-12
1.10517e-12
4.10975e-13
2.5472e-14
-1.29914e-13
-1.52499e-13
-1.18209e-13
-7.23579e-14
-3.52885e-14
-1.1995e-14
-3.20224e-16
3.87632e-15
4.23726e-15
3.15546e-15
1.91463e-15
7.33459e-16
1
1
1
1
1
0.999985
0.999966
1.00002
1.00022
1.00036
0.999873
0.998298
0.996344
0.996747
1.00341
1.01826
1.03708
1.04729
1.03022
0.968048
0.852278
0.689332
0.5
0.312776
0.154289
0.0412361
-0.0230068
-0.0465277
-0.0436044
-0.0288545
-0.0131217
-0.0020202
0.00329203
0.00424704
0.00302265
0.00136354
0.0001745
-0.000352165
-0.000403711
-0.000250322
-8.45346e-05
1.36094e-05
4.30314e-05
3.38903e-05
1.48879e-05
1.1586e-06
-4.21402e-06
-4.05367e-06
-2.01759e-06
-3.16602e-07
4.29246e-07
4.71757e-07
2.48032e-07
4.33336e-08
-5.27194e-08
-6.32946e-08
-3.85981e-08
-1.27815e-08
2.34867e-09
7.92819e-09
8.39012e-09
6.88856e-09
4.77412e-09
2.52505e-09
4.76925e-10
-1.0252e-09
-1.77009e-09
-1.79221e-09
-1.33248e-09
-7.02e-10
-1.50989e-10
1.94785e-10
3.26529e-10
3.05283e-10
2.10519e-10
1.05829e-10
2.63135e-11
-1.83097e-11
-3.37732e-11
-3.14128e-11
-2.16941e-11
-1.14886e-11
-3.97046e-12
2.70542e-13
1.93797e-12
2.07398e-12
1.5515e-12
9.14681e-13
4.13546e-13
1.07102e-13
-3.80457e-14
-8.12266e-14
-7.42378e-14
-5.08302e-14
-2.81415e-14
-1.21819e-14
-3.16248e-15
8.5144e-16
1.97524e-15
1.76495e-15
1
1
1
1
1
0.999999
0.999977
0.999969
1.00006
1.00027
1.00034
0.999674
0.997952
0.996139
0.997122
1.00461
1.01999
1.03846
1.04732
1.02841
0.964841
0.848913
0.687224
0.5
0.314771
0.157342
0.0441189
-0.0212264
-0.0461536
-0.0443425
-0.0300982
-0.0142888
-0.00277045
0.0030158
0.00430973
0.00322985
0.00156249
0.000293389
-0.000316115
-0.000418578
-0.000280908
-0.000108832
2.36018e-06
4.20078e-05
3.7411e-05
1.86058e-05
3.24407e-06
-3.72975e-06
-4.40938e-06
-2.52128e-06
-6.3164e-07
3.40993e-07
5.15467e-07
3.23769e-07
9.70656e-08
-3.21986e-08
-6.60489e-08
-5.13422e-08
-2.65746e-08
-8.44134e-09
1.24132e-09
5.60398e-09
7.24189e-09
7.19112e-09
5.80563e-09
3.55908e-09
1.16971e-09
-6.89016e-10
-1.66874e-09
-1.80689e-09
-1.39452e-09
-7.82477e-10
-2.37064e-10
1.13796e-10
2.61039e-10
2.62072e-10
1.90302e-10
1.03905e-10
3.53141e-11
-5.47039e-12
-2.20509e-11
-2.31755e-11
-1.72502e-11
-9.99033e-12
-4.22683e-12
-7.1404e-13
8.88834e-13
1.27314e-12
1.06794e-12
6.9168e-13
3.56475e-13
1.31863e-13
1.22837e-14
-3.46148e-14
-4.17192e-14
-3.24879e-14
-2.00822e-14
-1.00863e-14
-3.89961e-15
5.81769e-17
1
1
1
1
1
1
0.999994
0.99997
0.999978
1.0001
1.00032
1.00029
0.999453
0.997619
0.995994
0.997568
1.00583
1.02164
1.03971
1.04725
1.0266
0.961748
0.845711
0.685229
0.5
0.316664
0.160259
0.0469061
-0.0194615
-0.0457261
-0.045001
-0.0312804
-0.0154344
-0.0035352
0.00270848
0.00434457
0.00342307
0.00176139
0.000419944
-0.000271538
-0.000428128
-0.000310082
-0.000134232
-1.06949e-05
3.96605e-05
4.04245e-05
2.24105e-05
5.634e-06
-2.99221e-06
-4.65649e-06
-3.03276e-06
-1.00275e-06
2.01561e-07
5.3474e-07
4.00094e-07
1.65194e-07
5.7936e-09
-5.47412e-08
-5.58871e-08
-3.79452e-08
-2.12428e-08
-1.00694e-08
-2.5951e-09
2.86508e-09
6.4427e-09
7.71379e-09
6.76153e-09
4.39429e-09
1.7221e-09
-3.68935e-10
-1.4887e-09
-1.70923e-09
-1.35789e-09
-7.97873e-10
-2.90727e-10
4.24468e-11
1.9278e-10
2.1101e-10
1.61279e-10
9.41771e-11
3.82872e-11
3.28272e-12
-1.26516e-11
-1.58778e-11
-1.28255e-11
-8.03005e-12
-3.87853e-12
-1.15971e-12
2.2274e-13
6.92337e-13
6.77539e-13
4.82905e-13
2.75978e-13
1.23167e-13
3.35091e-14
-7.86315e-15
-2.02286e-14
-1.88172e-14
-1.31539e-14
-6.20412e-15
1
1
1
1
1
1
1
0.999988
0.999965
0.999994
1.00015
1.00035
1.00022
0.999214
0.997304
0.995908
0.998077
1.00706
1.02322
1.04084
1.04708
1.0248
0.958764
0.842658
0.683336
0.5
0.318465
0.16305
0.0496032
-0.0177142
-0.0452515
-0.0455862
-0.0324034
-0.016557
-0.00431106
0.00237286
0.0043525
0.00360162
0.00195889
0.000553116
-0.000218795
-0.000432158
-0.00033743
-0.000160412
-2.54381e-05
3.59461e-05