/*--------------------------------*- C++ -*----------------------------------*\
  =========                 |
  \\      /  F ield         | OpenFOAM: The Open Source CFD Toolbox
   \\    /   O peration     | Website:  https://openfoam.org
    \\  /    A nd           | Version:  7
     \\/     M anipulation  |
\*---------------------------------------------------------------------------*/
FoamFile
{
    version     2.0;
    format      ascii;
    class       volScalarField;
    location    "0.06";
    object      T;
}
// * * * * * * * * * * * * * * * * * * * * * * * * * * * * * * * * * * * * * //

dimensions      [0 0 0 1 0 0 0];

internalField   nonuniform List<scalar> 
45544
(
0
0
0
0
0
0
0
0
0
0
0
0
0
0
0
0
0
0
0
0
0
0
0
0
0
0
0
0
0
0
0
0
0
0
0
0
0
0
0
0
0
0
0
0
0
0
0
0
0
0
0
0
0
0
0
0
0
0
0
0
0
0
0
0
0
0
0
0
0
0
0
0
0
0
0
0
0
0
0
0
0
0
0
0
0
0
0
0
0
0
0
0
0
0
0
0
0
0
0
0
0
0
0
0
0
0
0
0
0
0
0
0
0
0
0
0
0
0
0
0
0
0
0
0
0
0
0
0
0
0
0
0
0
0
0
0
0
0
0
0
0
0
0
0
0
0
0
0
0
0
0
0
0
0
0
0
0
0
0
0
0
0
0
0
0
0
0
0
0
0
0
0
0
0
0
0
0
0
0
0
0
0
0
0
0
0
0
0
0
0
0
0
0
0
0
0
0
0
0
0
0
0
0
0
0
0
0
0
0
0
0
0
0
0
0
0
0
-1.1343e-45
-4.39212e-44
-3.14285e-43
-2.96854e-42
-7.2074e-38
-4.56176e-38
-2.56127e-38
-2.34343e-38
-2.02536e-38
-9.93479e-39
-1.48078e-37
1.44845e-35
5.47637e-35
4.65428e-35
4.34588e-35
3.44989e-33
2.43925e-31
8.11168e-31
2.80981e-30
1.43192e-30
3.81119e-30
2.25759e-30
2.41918e-30
2.36122e-30
1.41907e-30
7.04242e-31
1.19073e-30
7.47379e-31
6.74779e-31
2.76578e-31
1.24882e-31
5.15371e-32
2.49096e-32
1.43534e-32
1.81238e-32
6.80305e-33
5.21539e-33
2.36086e-33
9.37771e-34
4.59829e-34
1.88658e-34
6.40045e-35
5.35296e-35
1.7639e-35
6.2533e-36
2.64036e-36
9.88603e-37
8.14612e-37
2.55159e-37
7.99702e-38
6.37268e-38
1.62531e-38
9.56667e-39
1.91606e-39
3.87749e-40
8.06126e-41
1.08689e-41
1.00922e-42
2.69523e-43
2.18804e-44
1.05122e-45
5.285e-47
3.01154e-48
5.14658e-49
4.11005e-50
5.1978e-51
2.12272e-51
3.04916e-52
3.01285e-53
3.43689e-55
1.90821e-58
9.64319e-60
4.55126e-61
1.68603e-62
2.12196e-64
1.09677e-66
1.35142e-69
1.49283e-73
7.43582e-78
1.06693e-80
4.31013e-85
3.42806e-86
0
0
0
0
0
0
0
0
0
0
0
0
0
0
0
0
0
0
0
0
0
0
0
0
0
0
0
0
0
0
0
0
0
0
0
0
0
0
0
0
0
0
0
0
0
0
0
0
0
0
0
0
0
0
0
0
0
0
0
0
0
0
0
0
0
0
0
0
0
0
0
0
0
0
0
0
0
0
0
0
0
0
0
0
0
0
0
0
0
0
0
0
0
0
0
0
0
0
0
0
0
0
0
0
0
0
0
0
0
0
0
0
0
0
0
0
0
0
0
0
0
0
0
0
0
0
0
0
0
0
0
0
0
0
0
0
0
0
0
0
0
0
0
0
0
0
0
0
0
0
0
0
0
0
0
0
0
0
0
0
0
0
0
0
0
0
0
0
0
0
-2.00376e-126
-2.5047e-126
-1.29096e-126
-1.6137e-126
-2.3091e-125
-2.88638e-125
-1.48045e-125
-1.85057e-125
-5.60511e-125
-7.00639e-125
-3.56427e-125
-4.45533e-125
-2.28152e-125
-2.8519e-125
-1.46671e-125
-1.83338e-125
-3.45927e-123
-4.32409e-123
-2.98555e-122
-3.66325e-122
-1.05715e-119
-1.31965e-119
-6.29991e-120
-7.86798e-120
-5.63239e-120
-7.03922e-120
-4.45811e-116
-5.57264e-116
-1.09292e-115
-1.36615e-115
-6.95973e-116
-8.69944e-116
-3.19659e-114
1.1132e-113
-6.5332e-112
-8.0401e-112
-4.64871e-112
-5.75263e-112
-3.32469e-112
-4.12815e-112
-2.25012e-112
-2.23668e-112
-9.46793e-111
-1.16265e-110
-1.00938e-109
-1.23692e-109
-6.78395e-110
-8.35044e-110
-4.79001e-110
-5.91987e-110
-2.56066e-110
-3.14448e-110
-8.70946e-109
-1.07883e-108
-1.82024e-108
-2.26906e-108
-1.0478e-108
-1.30592e-108
-6.81134e-109
-8.42417e-109
-1.11043e-108
-1.37959e-108
-1.15983e-108
-1.44539e-108
-1.67613e-108
-2.08433e-108
-8.83426e-109
-1.0853e-108
-1.38985e-108
-1.7276e-108
-4.78249e-108
-5.93279e-108
-2.67392e-108
-3.31858e-108
-4.94438e-108
-6.16955e-108
-2.90488e-108
-3.6264e-108
-1.73174e-108
-2.1553e-108
-7.94287e-108
-9.91897e-108
-5.03789e-108
-6.29364e-108
-2.7383e-108
-3.38373e-108
-1.44921e-107
-1.80949e-107
-1.47417e-107
-1.8422e-107
-6.87215e-107
-8.5868e-107
-3.42855e-107
-4.28419e-107
-6.16905e-107
-7.71125e-107
-3.34479e-107
-4.18097e-107
-1.69945e-106
-2.12431e-106
-1.50631e-106
-1.88289e-106
-9.68546e-107
-1.21068e-106
-9.82219e-107
-1.22777e-106
-6.33751e-107
-7.92189e-107
-3.81414e-107
-4.76768e-107
-9.91598e-107
-1.2395e-106
-5.5174e-107
-6.89675e-107
-3.86165e-107
-4.82707e-107
-5.12073e-107
-6.40091e-107
-7.75863e-107
-9.69828e-107
-3.86503e-107
-4.83129e-107
-1.91326e-107
-2.39158e-107
-1.7175e-107
-2.14688e-107
-1.40831e-107
-1.76039e-107
-1.04017e-107
-1.30022e-107
-4.15378e-108
-5.19222e-108
-1.30031e-108
-1.62538e-108
-4.67947e-109
-5.84934e-109
-1.37947e-109
-1.72433e-109
-1.47447e-109
-1.84309e-109
-2.44324e-110
-3.05405e-110
-1.43554e-110
-1.79442e-110
1.1653e-110
1.45662e-110
5.95353e-111
7.44191e-111
2.25718e-111
2.82148e-111
4.4347e-111
5.54338e-111
1.97127e-111
2.46409e-111
1.89165e-111
2.36457e-111
5.37027e-112
6.71284e-112
1.96796e-111
2.45995e-111
2.57763e-112
3.22203e-112
3.27818e-113
4.09772e-113
7.68309e-114
9.60386e-114
8.08252e-115
1.01031e-114
1.65374e-115
2.06718e-115
3.76544e-116
4.70681e-116
9.59325e-118
1.19916e-117
5.06639e-119
6.33299e-119
1.14957e-119
1.43696e-119
7.6202e-121
9.52525e-121
7.96318e-123
9.95398e-123
3.06504e-124
3.83131e-124
1.10792e-124
1.38489e-124
9.22851e-126
1.15356e-125
1.67207e-126
2.09008e-126
1.87651e-127
2.34563e-127
4.41467e-128
5.51833e-128
6.5543e-129
8.19287e-129
1.95954e-129
2.44943e-129
1.62511e-129
2.03139e-129
2.53477e-131
3.16846e-131
8.65621e-132
1.08203e-131
1.84686e-132
2.30857e-132
5.22429e-132
6.53036e-132
1.6045e-132
2.00563e-132
2.32256e-133
2.90319e-133
3.62351e-134
4.52939e-134
7.42821e-131
9.28526e-131
4.41413e-131
5.51766e-131
2.28388e-125
2.85485e-125
8.66915e-126
1.08364e-125
2.59355e-126
3.24194e-126
6.99416e-127
8.74269e-127
5.3111e-118
4.07452e-80
2.0525e-68
5.68588e-63
2.64012e-52
9.38939e-47
4.86116e-44
1.6183e-41
2.96584e-40
5.412e-39
5.00365e-38
1.36916e-36
4.26202e-35
6.41762e-34
4.74786e-33
1.67477e-32
4.92313e-32
1.44641e-31
3.03605e-31
5.09722e-31
6.61275e-31
6.35894e-31
4.66743e-31
2.97864e-31
1.98232e-31
1.04911e-31
4.67674e-32
2.19171e-32
1.00899e-32
3.44899e-33
8.66146e-34
1.44284e-34
1.62275e-35
1.33042e-36
9.95758e-38
5.08668e-39
1.33651e-40
1.91759e-42
1.6374e-44
2.96405e-47
-3.11574e-51
-2.71829e-53
-8.27985e-59
1.89078e-66
8.07062e-72
4.98097e-80
2.55959e-85
7.64026e-95
2.25735e-101
1.22047e-111
-0.0129823
0.0587382
-0.00124951
0.0983675
0.0209628
0.123231
0.0192017
0.135232
0.0145197
0.137821
0.00294317
0.137028
-0.012066
0.13192
-0.025347
0.125465
-0.038228
0.120149
-0.0488673
0.117087
-0.0588333
0.111177
-0.0649443
0.105831
-0.0708168
0.104332
-0.0770664
0.102185
-0.0799202
0.100291
-0.0834963
0.0953375
-0.0840921
0.0956198
-0.0868935
0.0998161
-0.0889097
0.104582
-0.090936
1.03395
1.07941
1.20664
1.03147
1.11558
1.03702
1.09806
1.03703
1.10202
1.0387
1.10099
1.03724
1.102
1.03685
1.10118
1.03794
1.10166
1.03527
1.10033
1.03656
1.10143
1.03839
1.10171
1.03832
1.10082
1.03448
1.1001
1.03581
1.10209
1.03928
1.10013
1.0391
1.1024
1.03522
1.09969
1.0534
1.10338
1.08578
1.20099
0.0123967
0.111512
0.146551
0.150117
0.135439
0.12188
0.115735
0.113059
0.107466
0.0991022
0.0493819
0.0348172
0.0333821
0.0331568
0.0329932
0.0329459
0.0334536
0.0333376
0.0325164
0.0365766
4.28507e-86
0
0
0
0
0
0
0
0
0
0
0
0
0
0
0
0
0
-4.23154e-47
-6.4633e-44
-2.9911e-44
-2.01581e-43
-3.03109e-40
-4.68945e-38
-2.95441e-38
-1.65096e-38
-1.517e-38
-1.37591e-38
-6.90431e-38
-2.02887e-37
9.16155e-36
3.50596e-35
3.44974e-35
1.43507e-34
3.1161e-32
8.28956e-31
7.18657e-31
1.8867e-30
1.02469e-30
3.30045e-30
1.59864e-30
1.68363e-30
1.58504e-30
9.81696e-31
5.20031e-31
7.85482e-31
5.12396e-31
4.32475e-31
1.89854e-31
8.07962e-32
3.62828e-32
2.24458e-32
9.63874e-33
1.11299e-32
4.28306e-33
3.68079e-33
1.34258e-33
5.76758e-34
2.59719e-34
1.10194e-34
3.84991e-35
3.06235e-35
1.17425e-35
3.67149e-36
1.72833e-36
5.723e-37
4.14906e-37
1.58789e-37
3.83613e-38
3.52047e-38
8.63498e-39
4.44726e-39
7.72488e-40
1.48259e-40
3.01019e-41
3.35328e-42
2.72908e-43
8.61303e-44
4.95063e-45
3.12406e-46
1.54051e-47
7.19053e-49
1.13731e-49
1.2943e-50
1.48247e-51
6.35466e-52
7.89061e-53
3.59505e-54
1.33839e-56
1.19665e-59
1.80956e-60
6.5284e-62
1.96585e-63
1.79692e-65
4.24807e-68
1.57616e-71
1.5094e-75
9.70486e-80
1.58379e-82
0
3.87162e-87
0
7.64579e-80
6.76206e-71
6.63887e-118
1.39954e-70
2.35305e-64
1.35175e-53
3.16575e-50
2.68948e-45
1.02209e-42
7.82225e-41
1.29377e-39
1.62635e-38
2.21988e-37
8.18511e-36
1.77555e-34
1.92448e-33
9.55699e-33
2.76243e-32
8.76827e-32
2.15109e-31
4.01537e-31
6.03234e-31
6.71777e-31
5.62414e-31
3.75142e-31
2.45451e-31
1.49157e-31
7.09866e-32
3.16001e-32
1.53664e-32
6.19613e-33
1.79927e-33
3.85868e-34
5.06423e-35
4.71006e-36
3.81617e-37
2.43054e-38
8.96488e-40
1.93018e-41
1.97954e-43
9.22861e-46
8.93869e-49
-7.71651e-52
-7.42496e-57
3.06037e-63
2.34499e-68
6.14836e-78
1.57326e-83
8.04641e-93
7.82266e-99
4.87441e-110
-0.0162298
1.38816e-114
-0.135128
0.321805
0.46547
0.0722209
0.135628
0.15106
0.140533
0.129046
0.121804
0.116607
0.113234
0.110118
0.00552992
0.101949
0.0325275
0.0334626
0.0346348
0.0333206
0.0324651
0.0333814
0.0331221
0.0328646
0.0332763
0.0143069
0
0
0
0
0
0
0
0
0
0
0
0
0
0
0
0
-5.28942e-47
-7.6732e-44
-2.83893e-44
-2.45895e-43
-2.25495e-42
-5.3647e-38
-3.49513e-38
-1.92475e-38
-1.83806e-38
-1.50817e-38
2.36044e-37
3.07132e-37
1.24329e-35
4.45813e-35
4.43156e-35
-5.57113e-34
7.49256e-33
3.80163e-31
-9.94883e-32
1.79715e-30
8.33817e-31
3.59037e-30
1.18541e-30
1.23953e-30
1.59704e-30
9.97949e-31
2.4431e-31
8.52157e-31
5.71259e-31
4.9674e-31
2.22035e-31
9.23579e-32
4.15398e-32
2.5763e-32
1.0197e-32
1.33846e-32
5.2118e-33
4.56426e-33
1.67283e-33
7.2027e-34
3.24609e-34
1.37738e-34
4.80783e-35
3.8275e-35
1.46779e-35
4.58934e-36
2.16042e-36
7.15375e-37
5.18632e-37
1.98486e-37
4.79516e-38
4.40058e-38
1.07937e-38
5.55907e-39
9.65609e-40
1.85324e-40
3.76273e-41
4.1916e-42
3.41135e-43
1.07663e-43
6.18829e-45
3.90508e-46
1.92563e-47
8.98816e-49
1.42164e-49
1.61787e-50
1.85308e-51
7.94332e-52
9.86326e-53
4.49381e-54
1.67298e-56
1.49581e-59
2.26195e-60
8.1605e-62
2.45731e-63
2.24615e-65
5.31009e-68
1.9702e-71
1.88675e-75
1.21311e-79
1.97973e-82
4.83953e-87
1.30346e-62
5.82076e-52
2.2122e-46
1.16894e-43
3.62582e-41
5.57959e-40
1.06036e-38
9.01618e-38
2.87208e-36
8.69358e-35
1.19354e-33
8.07433e-33
2.4964e-32
7.72736e-32
2.13405e-31
4.26021e-31
6.81968e-31
8.23493e-31
7.34024e-31
5.0782e-31
3.25306e-31
2.11691e-31
1.03076e-31
4.51441e-32
2.20389e-32
9.49797e-33
2.92212e-33
6.63011e-34
9.14432e-35
9.05525e-36
7.18894e-37
4.84933e-38
1.92221e-39
4.16152e-41
4.44907e-43
2.13121e-45
2.14525e-48
-1.81769e-51
-1.7205e-56
7.24274e-63
5.65909e-68
1.45401e-77
3.87268e-83
1.8952e-92
1.89625e-98
1.2152e-109
4.71808e-114
-0.00621645
0.019917
-0.00276735
-0.0286196
-0.0556041
-0.0736053
-0.0839414
-0.0891041
-0.093347
-0.091366
0.0172933
0.0189584
0.0188872
0.0194716
0.0186913
0.0189353
0.0194244
0.0199973
0.0199534
0.0201165
0
0
0
0
0
0
0
0
0
0
0
0
0
0
0
0
4.98584e-45
-4.09904e-44
-3.87605e-43
-3.67851e-42
-8.27608e-38
-5.4e-38
-2.99108e-38
-2.84452e-38
-2.20977e-38
-5.36042e-39
1.8742e-37
1.92054e-35
6.91102e-35
5.92211e-35
-7.67525e-35
-1.45512e-32
-6.88459e-31
-4.07841e-31
2.89391e-30
1.15198e-30
3.94434e-30
2.31821e-30
1.75967e-30
2.38783e-30
1.41682e-30
3.94584e-31
1.26819e-30
8.26697e-31
7.72319e-31
3.19317e-31
1.40722e-31
5.78619e-32
2.7187e-32
1.56792e-32
2.17141e-32
8.1719e-33
6.43195e-33
2.93771e-33
1.16954e-33
5.74625e-34
2.35804e-34
7.98858e-35
6.68958e-35
2.20478e-35
7.81654e-36
3.30045e-36
1.23575e-36
1.01826e-36
3.18949e-37
9.99628e-38
7.96585e-38
2.03164e-38
1.19583e-38
2.39508e-39
4.84686e-40
1.00766e-40
1.35861e-41
1.26153e-42
3.36904e-43
2.73505e-44
1.31403e-45
6.60625e-47
3.76442e-48
6.43323e-49
5.13757e-50
6.49725e-51
2.6534e-51
3.81146e-52
3.76606e-53
4.29611e-55
2.38527e-58
1.2054e-59
5.68908e-61
2.10754e-62
2.65245e-64
1.37096e-66
1.68927e-69
1.86604e-73
9.29478e-78
1.33366e-80
5.38766e-85
6.32529e-45
2.42434e-42
1.54476e-40
2.5555e-39
2.91114e-38
4.60682e-37
1.71962e-35
3.4979e-34
3.46749e-33
1.50708e-32
4.2584e-32
1.35063e-31
3.12014e-31
5.54949e-31
7.7872e-31
8.05417e-31
6.29134e-31
3.99776e-31
2.69967e-31
1.50608e-31
6.84731e-32
3.1224e-32
1.51287e-32
5.43233e-33
1.45041e-33
2.55447e-34
3.04148e-35
2.53634e-36
1.94869e-37
1.02985e-38
2.9007e-40
4.19393e-42
3.73304e-44
7.07616e-47
-5.67905e-51
-6.77936e-53
-2.06579e-58
4.5549e-66
1.93665e-71
1.21851e-79
6.32352e-85
1.89263e-94
5.45777e-101
3.54346e-111
3.12361e-117
0.0202083
0.0108358
-0.0167807
-0.0444403
-0.0650611
-0.0776638
-0.0863414
-0.0891842
-0.0896354
-0.131127
0.0188098
0.0194652
0.0189534
0.0187271
0.0187894
0.0187755
0.0192275
0.0202744
0.0188443
0.0022941
0
4.67754e-68
7.73187e-50
3.13774e-53
5.50954e-64
0.00851723
0
0
0
0
0
0
0
0
0
0
0
0
0
0
0
0
0
0
0
0
0
0
0
0
0
0
0
0
0
0
0
0
0
0
0
0
0
0
0
0
0
0
0
0
0
0
0
0
0
0
0
0
0
0
0
0
0
0
0
0
0
0
0
0
0
0
0
0
0
0
0
0
0
0
0
0
0
0
0
0
0
0
0
0
0
0
0
0
0
0
0
0
0
0
0
0
0
0
0
0
0
0
0
0
0
0
0
0
0
0
0
0
0
0
0
0
0
0
0
0
0
0
0
0
0
0
0
0
0
0
0
0
0
0
0
0
0
0
0
0
0
0
0
0
0
0
0
0
0
0
0
0
0
0
0
0
0
0
0
0
0
0
0
0
0
0
0
0
0
0
0
0
0
0
0
0
0
0
0
0
0
0
0
0
0
0
0
0
0
0
0
0
0
0
0
0
5.68263e-68
1.70156e-70
4.00374e-70
1.58451e-62
0
0
0
0
0
0
0
0
0
0
0
0
0
0
-1.27408e-44
-1.12431e-41
-2.397e-41
-1.73682e-41
-1.77159e-38
-2.44783e-36
-1.02931e-36
-1.31807e-36
-7.94459e-37
-1.46311e-36
7.224e-37
-1.26531e-35
1.2441e-33
3.51759e-33
1.9305e-33
6.96131e-31
1.35026e-29
1.24124e-28
1.86734e-28
1.17869e-28
8.89695e-29
1.19552e-28
1.64746e-28
1.73159e-28
7.81792e-29
5.22991e-29
8.69301e-29
3.69944e-29
2.21503e-29
1.58324e-29
6.57427e-30
4.25999e-30
2.11158e-30
1.26864e-30
9.90427e-31
3.86737e-31
1.85277e-31
9.60053e-32
4.10094e-32
2.20797e-32
6.93179e-33
3.23069e-33
2.50833e-33
1.03493e-33
4.04599e-34
1.60642e-34
5.96617e-35
4.55403e-35
1.39924e-35
5.04532e-36
4.00124e-36
1.18963e-36
3.28325e-37
1.21757e-37
3.20875e-38
5.38002e-39
8.17337e-40
1.38338e-40
5.83387e-41
4.31364e-42
4.37304e-43
3.46899e-44
1.11025e-45
1.17096e-46
4.83043e-48
5.99374e-49
4.99654e-49
5.04319e-50
7.69302e-51
1.58762e-52
5.10115e-55
3.49813e-57
9.93156e-59
3.4026e-60
7.71596e-62
6.56766e-64
3.16501e-66
1.21172e-69
1.16898e-73
4.96378e-77
7.44025e-81
1.93806e-83
7.65672e-45
0
5.24389e-86
0
0
0
0
0
0
0
0
0
0
0
0
0
0
0
0
0
0
0
0
0
0
0
0
0
0
0
0
0
0
0
0
0
0
0
0
0
0
0
0
0
0
0
0
0
0
0
0
0
0
0
0
0
0
0
0
0
0
0
0
0
0
0
0
0
0
0
0
0
0
0
0
0
0
0
0
0
0
0
0
0
0
0
0
0
0
0
0
0
0
0
0
0
0
0
0
0
0
0
0
0
0
0
0
0
0
0
0
0
0
0
0
0
0
0
0
0
0
0
0
0
0
0
0
0
0
0
0
0
0
0
0
0
0
0
0
0
0
0
0
0
0
0
0
0
0
0
0
0
0
0
0
0
0
0
0
0
0
0
0
0
0
0
0
0
0
0
0
0
0
-7.21942e-124
-9.01052e-124
-1.75446e-123
-2.26113e-123
-1.11868e-123
-1.39676e-123
-9.5098e-123
-1.2069e-122
-8.39266e-123
-1.04253e-122
-5.32214e-123
-6.72516e-123
-3.34329e-123
-4.25664e-123
-1.86162e-121
-2.33246e-121
-5.51112e-121
-6.88725e-121
-1.287e-120
-1.55454e-120
-6.83344e-118
-8.56721e-118
-3.89098e-118
-5.03109e-118
-3.42125e-118
-4.34274e-118
-6.28398e-114
-7.832e-114
-4.92508e-114
-6.12829e-114
-3.29015e-113
-3.88851e-114
-8.05683e-110
-1.00788e-109
-1.00557e-109
-1.23832e-109
-7.20113e-110
-4.92115e-110
-5.29565e-110
-4.76846e-110
-6.05124e-109
-7.45219e-109
-8.30894e-109
-8.84927e-109
-1.30883e-107
-1.62957e-107
-8.76269e-108
-1.08619e-107
-5.84045e-108
-7.25537e-108
-3.08283e-108
-3.83427e-108
-1.06826e-106
-1.32667e-106
-7.70519e-107
-9.55768e-107
-4.42351e-107
-5.57885e-107
-1.081e-106
-1.36786e-106
-1.08008e-106
-1.33683e-106
-7.13617e-107
-8.95086e-107
-2.17813e-106
-2.69047e-106
-3.64934e-106
-4.59969e-106
-2.14633e-106
-2.67253e-106
-1.27763e-105
-1.59012e-105
-7.10068e-106
-8.89204e-106
-4.18156e-106
-5.24726e-106
-2.38297e-106
-3.04668e-106
-2.42364e-106
-3.01655e-106
-3.04109e-106
-3.77924e-106
-1.95037e-106
-2.46101e-106
-2.05101e-105
-2.60278e-105
-2.03362e-105
-2.5241e-105
-1.18515e-105
-1.48966e-105
-1.40296e-104
-1.74888e-104
-2.78882e-104
-3.52055e-104
-1.43982e-104
-1.8136e-104
-6.25685e-104
-7.95511e-104
-3.89311e-104
-4.83611e-104
-1.95738e-104
-2.46244e-104
-1.53552e-104
-1.94952e-104
-9.9002e-105
-1.22693e-104
-4.113e-105
-5.16093e-105
-9.50644e-105
-1.19271e-104
-5.26247e-105
-6.52589e-105
-4.62307e-105
-5.92621e-105
-3.1884e-105
-4.03873e-105
-4.8383e-105
-6.03328e-105
-2.985e-105
-3.71514e-105
-1.47976e-105
-1.87325e-105
-1.23258e-105
-1.56972e-105
-8.52895e-106
-1.0591e-105
-5.28359e-106
-6.65031e-106
-5.98178e-106
-7.45472e-106
-4.34771e-106
-5.48793e-106
-1.56422e-106
-1.97392e-106
-8.74206e-107
-1.1055e-106
-2.51824e-107
-3.16804e-107
-1.01684e-107
-1.2732e-107
-1.65469e-108
-2.10004e-108
-1.31996e-108
-1.64603e-108
4.5934e-109
5.71792e-109
2.33256e-109
2.95303e-109
7.08279e-109
9.01034e-109
5.35371e-109
6.64563e-109
1.37738e-109
1.73189e-109
4.28284e-109
5.34385e-109
3.87574e-109
4.98723e-109
1.09087e-109
1.35784e-109
1.40687e-110
1.80191e-110
2.31384e-111
2.86255e-111
3.43482e-112
4.31231e-112
3.49857e-113
4.51238e-113
1.46849e-113
1.83471e-113
1.31533e-114
1.63668e-114
3.35175e-116
4.23109e-116
9.54917e-117
1.21279e-116
1.22627e-117
1.52243e-117
5.31282e-119
6.68172e-119
5.67037e-121
7.07722e-121
4.55329e-122
5.86893e-122
4.46199e-123
5.57256e-123
1.76584e-123
2.24842e-123
1.85205e-124
2.3008e-124
1.79254e-125
2.25885e-125
4.93738e-126
6.32172e-126
7.39473e-127
9.25778e-127
1.21954e-127
1.52184e-127
1.95331e-127
2.45439e-127
3.2712e-129
4.08828e-129
1.30826e-129
1.6362e-129
2.78717e-130
3.52418e-130
6.68033e-130
8.32894e-130
6.9761e-131
8.68123e-131
1.01308e-131
1.28458e-131
1.30111e-128
1.65764e-128
8.22267e-129
1.01928e-128
2.39029e-129
3.00004e-129
1.64052e-123
2.03236e-123
1.78875e-123
2.24943e-123
8.33942e-118
1.03498e-117
2.57984e-118
4.03183e-117
3.25405e-118
9.36914e-50
-0.001871
0.00131095
0.000348804
7.05681e-52
1.651e-51
6.70224e-64
1.32582e-67
1.58527e-63
2.67978e-46
2.32537e-49
6.61569e-46
3.81104e-53
9.36575e-53
2.9344e-42
1.86897e-40
3.09472e-39
3.53154e-38
5.58929e-37
2.08465e-35
4.24122e-34
4.21823e-33
1.82504e-32
5.17123e-32
1.63744e-31
3.78588e-31
6.74679e-31
9.44072e-31
9.75443e-31
7.63064e-31
4.85612e-31
3.28019e-31
1.82632e-31
8.29726e-32
3.78268e-32
1.8298e-32
6.58542e-33
1.75714e-33
3.09907e-34
3.70056e-35
3.07627e-36
2.3603e-37
1.2479e-38
3.51216e-40
5.09883e-42
4.53682e-44
8.57795e-47
-6.83024e-51
-8.22035e-53
-2.51046e-58
5.53648e-66
2.34955e-71
1.48126e-79
7.68775e-85
2.29078e-94
6.60801e-101
4.31702e-111
5.74066e-114
1.63316e-113
1.4158e-116
-9.95255e-05
-0.0102599
0.187442
-0.000885392
-0.00385972
-0.000648877
-0.00568711
0.000304968
-0.00740535
0.000671773
-0.00898147
0.00151794
-0.0093995
0.00163435
-0.0105156
0.00325067
-0.00950176
0.0017103
-0.0108147
0.00487454
-0.0130027
0.00314357
-0.0129898
0.00107863
-0.0125063
0.00199991
-0.0113908
0.00288311
-0.0115318
0.00431231
-0.0112398
0.00389282
-0.0103047
0.00432715
-0.0125842
0.0061742
-0.0164951
0.00381019
0.425449
1.03745
1.0226
0.997352
1.02687
0.995313
1.02677
0.997848
1.02807
0.999567
1.02712
0.999697
1.0286
1.00029
1.02691
1.00067
1.02698
0.999083
1.02753
1.00037
1.02793
0.999425
1.02708
0.999849
1.02968
0.999912
1.02653
0.998143
1.02806
0.999751
1.02607
0.999267
1.02816
0.997123
1.15556
0.770535
1.08525
0
-0.00654462
-0.00980977
-0.0123212
-0.0130406
-0.0137566
-0.0150815
-0.0120772
-0.0192302
-0.0780095
-0.0049991
-0.000352095
-0.000261802
-0.0101642
0
-0.0105526
-0.0104391
-0.0101935
-0.0100795
-0.0102104
-0.0102859
-0.0106199
-0.010357
-0.000946279
0
0
0
0.00201152
-7.59075e-05
0.00113204
1.16086
1.10722
0.57088
-0.000310905
0.00125695
-0.0405398
0.00269974
-0.00346364
0
1.55032e-85
0
0
3.15035e-77
3.71524e-62
0
9.31271e-80
0
0
0
0
0
0
0
0
0
0
0
0
0
0
-1.70423e-41
-3.7591e-41
-1.54416e-41
-2.61827e-39
-3.79182e-36
-1.59518e-36
-1.57391e-36
-1.06862e-36
-2.13246e-36
2.47932e-37
-6.28042e-36
1.92298e-33
5.50219e-33
2.38956e-33
1.99535e-31
5.90895e-30
1.71637e-28
2.57053e-28
1.34182e-28
1.32235e-28
1.76492e-28
1.13121e-28
2.58335e-28
1.17626e-28
7.71125e-29
9.86493e-29
5.74721e-29
3.43462e-29
2.51048e-29
1.02594e-29
6.65917e-30
3.37251e-30
2.03821e-30
1.1815e-30
6.2093e-31
2.95312e-31
1.58504e-31
6.12497e-32
3.52675e-32
1.28756e-32
5.52528e-33
3.73627e-33
1.79687e-33
6.10584e-34
3.02277e-34
1.0674e-34
5.84294e-35
2.74632e-35
8.25481e-36
5.48832e-36
2.2314e-36
5.57703e-37
2.96591e-37
5.26955e-38
1.32631e-38
2.19145e-39
4.24886e-40
1.55243e-40
1.61253e-41
2.03373e-42
1.25634e-43
6.02069e-45
3.64214e-46
2.14532e-47
2.21908e-48
1.12653e-48
1.67996e-49
3.10269e-50
1.38008e-51
1.34081e-53
6.86396e-56
5.46883e-58
2.4532e-59
6.80801e-61
8.29515e-63
7.75042e-65
1.03562e-67
1.94725e-71
4.37322e-75
5.27342e-79
2.30207e-83
0
0
0
0
-0.0380685
1.416e-43
4.38271e-41
6.74984e-40
1.28727e-38
1.09355e-37
3.48453e-36
1.05353e-34
1.44823e-33
9.81021e-33
3.02505e-32
9.38195e-32
2.58778e-31
5.17806e-31
8.27375e-31
9.98357e-31
8.88341e-31
6.17047e-31
3.95223e-31
2.57099e-31
1.24875e-31
5.46584e-32
2.66955e-32
1.15022e-32
3.54082e-33
8.03383e-34
1.11211e-34
1.09917e-35
8.71816e-37
5.86756e-38
2.33024e-39
5.04956e-41
5.41022e-43
2.58562e-45
2.59765e-48
-2.20075e-51
-2.09127e-56
8.80342e-63
6.87508e-68
1.76493e-77
4.70729e-83
2.30078e-92
2.29115e-98
1.477e-109
0
0
0.0225623
0.11942
0
0
-0.00756635
-0.0121035
-0.0115437
-0.0119971
-0.013985
-0.0134969
-0.0144156
-0.00300683
-0.0259902
0
-0.010588
-0.010392
-0.0103209
0
0
-0.0100372
-0.0102509
-0.0104839
-0.0105648
-0.0105136
0
-0.0103769
0
0
0
0.00147973
0
0
0
0
0.00358156
0.0037779
0.00401411
0.00554261
0.00441426
0.000526215
1.06918e-110
1.58257e-100
5.82602e-94
1.84429e-84
3.62549e-79
5.75225e-71
1.31803e-65
-6.28959e-58
-1.98107e-52
-1.09506e-50
2.06139e-46
1.06491e-43
1.14926e-41
7.44631e-40
2.50533e-38
4.7114e-37
5.79031e-36
6.89505e-35
5.61985e-34
2.90345e-33
1.0506e-32
2.68543e-32
5.32192e-32
1.22111e-31
2.65382e-31
4.39253e-31
6.61768e-31
1.01873e-30
1.23078e-30
1.09046e-30
7.19537e-31
3.83432e-31
1.47364e-31
4.60275e-32
1.6252e-32
2.75586e-33
2.18043e-34
7.58052e-36
2.02809e-37
2.52444e-38
2.47875e-83
9.50078e-81
6.20972e-77
1.4533e-73
1.50902e-69
3.99655e-66
8.18538e-64
9.79301e-62
4.23725e-60
1.26853e-58
4.38855e-57
6.35829e-55
2.03145e-52
9.62898e-51
6.40051e-50
6.30947e-49
7.4528e-49
6.11794e-48
1.47399e-46
1.38082e-45
4.3205e-44
5.49614e-43
5.37696e-42
7.30555e-41
1.72527e-40
1.04583e-39
6.75119e-39
4.08573e-38
1.52105e-37
4.18946e-37
1.48987e-36
5.02908e-36
6.2882e-36
1.77156e-35
5.73681e-35
7.44333e-35
2.00029e-34
5.06661e-34
1.29353e-33
3.13791e-33
4.02731e-33
8.85918e-33
2.76782e-32
5.16784e-32
1.18123e-31
2.28756e-31
4.61112e-31
1.17174e-30
1.4568e-30
2.47265e-30
4.86408e-30
7.47502e-30
1.80853e-29
2.47784e-29
3.9544e-29
9.23783e-29
5.16969e-29
7.00313e-29
1.56703e-28
1.52152e-28
1.09341e-28
0
0
8.16597e-29
8.51262e-29
1.25158e-28
7.74465e-29
-2.29758e-29
-2.04905e-30
1.37309e-33
4.12537e-33
1.50326e-33
2.04362e-35
4.32141e-35
-1.3716e-36
-2.44231e-37
2.42196e-37
-1.18663e-36
-2.81304e-36
-2.06941e-39
-2.13606e-41
-2.97158e-41
-1.28858e-41
0
0
0
0
0
0
0
0
0
0
0
0
-0.0928875
-0.00155513
0.00566005
0.00129992
0.0018031
0.00233735
0
3.54311e-109
5.61954e-98
5.51522e-92
1.13884e-82
4.24364e-77
1.62462e-67
2.19824e-62
-5.02352e-56
-5.16835e-51
6.45147e-48
5.98694e-45
1.20404e-42
1.09515e-40
4.97459e-39
1.18491e-37
1.65768e-36
2.0999e-35
2.00904e-34
1.37093e-33
5.73601e-33
1.74693e-32
3.8381e-32
8.07651e-32
1.81417e-31
3.5757e-31
5.25464e-31
8.44157e-31
1.1539e-30
1.21041e-30
9.154e-31
5.3628e-31
2.52904e-31
8.01404e-32
2.82748e-32
7.45344e-33
8.09093e-34
4.291e-35
1.17586e-36
6.00355e-38
0
1.8168e-44
2.86888e-83
6.55336e-79
5.53356e-75
2.437e-71
1.30854e-67
9.74079e-65
1.0348e-62
8.52947e-61
3.06983e-59
6.8098e-58
8.60503e-56
1.67861e-53
1.72748e-51
3.88327e-50
2.08922e-49
1.41605e-48
2.77472e-48
2.66674e-47
4.63623e-46
7.54807e-45
1.58081e-43
2.55548e-42
2.01046e-41
1.95849e-40
5.32101e-40
2.72584e-39
1.65895e-38
6.5922e-38
3.71418e-37
7.01352e-37
2.77265e-36
6.98213e-36
1.02966e-35
3.41482e-35
7.47493e-35
1.33392e-34
3.79973e-34
7.70849e-34
2.24133e-33
4.70139e-33
6.91737e-33
1.59975e-32
4.40444e-32
7.54974e-32
1.94106e-31
3.58714e-31
7.28945e-31
1.38031e-30
2.35512e-30
3.97839e-30
7.88718e-30
1.15809e-29
2.96087e-29
3.85732e-29
6.10342e-29
9.62928e-29
7.6603e-29
1.05879e-28
2.68468e-28
5.88999e-29
1.5809e-28
1.22567e-28
9.41852e-29
1.65915e-28
1.09057e-28
5.40332e-30
2.49396e-31
2.23736e-33
6.89944e-33
2.45498e-33
2.81387e-35
1.66823e-36
-2.11987e-36
-1.24069e-37
-1.89669e-36
-1.79568e-36
-4.33863e-36
-3.25293e-39
-1.88546e-41
-4.72347e-41
0
-1.97058e-41
0
0
0
0
0
0
0
0
0
0
0
0
0
0
1.27172e-39
9.8692e-41
3.26484e-43
6.67937e-42
3.63313e-40
6.2419e-39
0.00311577
0.00282921
0.00260979
0
0
0
0
0
0
0
0
0
0
0
0
0
0
0
0
0
0
0
0
0
0
0
0
0
0
0
0
0
0
0
0
0
0
0
0
0
0
0
0
0
0
0
0
0
0
0
0
0
0
0
0
0
0
0
0
0
0
0
0
0
0
0
0
0
0
0
0
0
0
0
0
0
0
0
0
0
0
0
0
0
0
0
0
0
0
0
0
0
0
0
0
0
0
0
0
0
0
0
0
0
0
0
0
0
0
0
0
0
0
0
0
0
0
0
0
0
0
0
0
0
0
0
0
0
0
0
0
0
0
0
0
0
0
0
0
0
0
0
0
0
0
0
0
0
0
0
0
0
0
0
0
0
0
0
0
0
0
0
0
0
0
0
0
0
0
0
0
0
0
0
0
0
0
0
0
0
0
0
0
0
0
0
0
0
0
0
0
0
0
0
0
0
0
4.92886e-70
4.55725e-62
1.55069e-39
0.000485312
0
0
0
0
0
0
0
0
0
-4.47991e-39
5.99516e-27
0
0
0
0
0
0
0
0
0
0
0
-1.26667e-41
3.14079e-41
-5.54266e-39
0
0
-1.82578e-39
-9.25289e-40
-1.0955e-36
-1.97341e-34
-1.25083e-34
-7.20553e-35
-5.44618e-34
-2.85691e-34
2.91294e-35
1.51471e-31
1.55682e-31
3.26641e-31
4.40406e-30
1.59486e-29
6.45242e-28
1.72218e-26
2.6949e-26
1.26576e-26
8.11968e-27
3.73675e-27
0
0
7.66764e-27
1.00303e-26
1.16665e-26
5.54859e-27
3.20191e-27
3.38018e-27
1.91151e-27
8.6599e-28
5.84925e-28
2.54602e-28
1.81523e-28
7.06093e-29
5.28029e-29
3.40206e-29
1.28866e-29
6.22714e-30
3.014e-30
1.36569e-30
9.06448e-31
3.0927e-31
1.14193e-31
7.59252e-32
3.27744e-32
1.59365e-32
4.90346e-33
2.14514e-33
1.90159e-33
6.84685e-34
2.87145e-34
1.39888e-34
4.17996e-35
1.54202e-35
4.14412e-36
1.02644e-36
4.32192e-37
8.40835e-38
1.12955e-38
2.79661e-39
2.93614e-40
2.08263e-41
1.22559e-42
4.73911e-44
4.38641e-45
2.51776e-46
3.02472e-47
2.85187e-47
2.89533e-48
1.35452e-48
4.73335e-50
1.01065e-52
1.66603e-55
6.39878e-57
1.44127e-58
2.73519e-60
2.21952e-62
2.30438e-64
1.1913e-67
8.94177e-72
1.71021e-75
8.6851e-78
0
0
0
0
0
0
0
0
0
0
0
0
0
0
0
0
0
0
0
0
0
0
0
0
0
0
0
0
0
0
0
0
0
0
0
0
0
0
0
0
0
0
0
0
0
0
0
0
0
0
0
0
0
0
0
0
0
0
0
0
0
0
0
0
0
0
0
0
0
0
0
0
0
0
0
0
0
0
0
0
0
0
0
0
0
0
0
0
0
0
0
0
0
0
0
0
0
0
0
0
0
0
0
0
0
0
0
0
0
0
0
0
0
0
0
0
0
0
0
0
0
0
0
0
0
0
0
0
0
0
0
0
0
0
0
0
0
0
0
0
0
0
0
0
0
0
0
0
0
0
0
0
0
0
0
0
0
0
0
0
0
0
0
0
0
0
0
0
0
0
-3.41196e-121
-4.26033e-121
-2.17215e-121
-2.7098e-121
-1.37373e-121
-1.73656e-121
-7.28302e-121
-9.04454e-121
-4.66277e-121
-5.83174e-121
-2.87501e-121
-3.7268e-121
-1.38672e-119
-1.73423e-119
-2.81019e-119
-3.48426e-119
-7.68088e-119
2.52784e-118
-9.68987e-119
1.19676e-118
-1.00685e-115
-1.2547e-115
-5.87197e-116
-7.37742e-116
-5.16029e-116
-6.55761e-116
-4.81979e-112
-5.97922e-112
-5.30692e-112
5.34931e-112
-6.65344e-110
3.18737e-109
-1.10243e-107
-1.34896e-107
-9.35145e-108
-3.53933e-109
-2.82529e-106
-3.55001e-106
-2.17226e-106
-2.66917e-106
-1.3809e-106
-1.6845e-106
-6.95342e-106
-8.54717e-106
-8.36843e-106
-1.03198e-105
-7.87596e-106
-9.72817e-106
-5.46502e-106
-5.36467e-106
-3.11375e-106
-3.02568e-106
-6.72948e-105
-8.31291e-105
-4.04069e-105
-4.8906e-105
-2.30217e-105
-2.8454e-105
-8.93902e-105
-1.10732e-104
-5.10176e-105
-6.02938e-105
-3.39912e-105
-3.89775e-105
-5.39594e-104
-6.71437e-104
-2.75959e-104
-3.40635e-104
-7.25964e-104
-9.39564e-104
-4.65693e-104
-5.78109e-104
-3.49144e-104
-4.33777e-104
-2.0727e-104
-2.48402e-104
-3.58709e-104
-4.45082e-104
-2.11893e-104
-2.58589e-104
-1.31032e-104
-1.50077e-104
-8.66866e-105
-1.05751e-104
-1.67013e-103
-2.07922e-103
-1.00333e-103
-1.02689e-103
-5.90954e-104
-7.06413e-104
-4.2172e-102
-5.26473e-102
-2.02701e-102
-2.52623e-102
-6.96493e-102
-8.97651e-102
-3.75814e-102
-4.6695e-102
-2.28931e-102
-2.89738e-102
-1.14276e-102
-1.45036e-102
-1.18231e-102
-1.47642e-102
-7.54375e-103
-9.3907e-103
-3.12797e-103
-3.92124e-103
-4.66271e-103
-5.82491e-103
-4.97545e-103
-6.20164e-103
-2.72395e-103
-3.41617e-103
-1.88959e-103
-2.38781e-103
-2.46858e-103
-3.06509e-103
-1.32696e-103
-1.66676e-103
-6.46189e-104
-8.29339e-104
-6.52246e-104
-8.12287e-104
-3.84863e-104
-4.80899e-104
-8.41539e-104
-1.07797e-103
-4.25489e-104
-5.29699e-104
-1.74884e-104
-2.17864e-104
-6.48689e-105
-8.34124e-105
-2.84499e-105
-3.5592e-105
-1.01215e-105
-1.28573e-105
-2.95861e-106
-3.70045e-106
-4.89509e-107
-6.14657e-107
-6.6918e-107
-8.31282e-107
2.05784e-107
2.5854e-107
1.02637e-107
1.3186e-107
7.16214e-107
8.92515e-107
2.84543e-107
3.55655e-107
7.12573e-108
9.13016e-108
1.48046e-106
1.848e-106
4.17008e-107
5.20201e-107
1.97582e-107
2.47969e-107
2.61885e-108
3.29272e-108
2.90644e-109
3.61372e-109
4.31337e-110
5.45337e-110
4.47751e-111
5.669e-111
1.25977e-111
1.56272e-111
5.236e-113
6.57398e-113
1.49113e-114
1.90466e-114
6.51494e-115
8.11547e-115
5.44678e-116
6.80977e-116
2.31672e-117
2.97658e-117
5.89182e-119
7.35728e-119
3.80136e-120
4.74276e-120
3.82273e-121
4.84233e-121
2.01628e-121
2.50571e-121
1.41151e-122
1.76193e-122
1.34209e-123
1.73834e-123
3.22956e-124
4.02743e-124
4.27231e-125
5.31054e-125
9.22836e-125
1.16051e-124
1.19554e-125
1.49114e-125
2.17688e-127
2.70573e-127
2.75737e-127
3.45171e-127
6.01632e-128
7.59522e-128
4.07094e-128
5.0529e-128
4.22837e-129
5.31228e-129
6.16105e-130
7.93482e-130
2.34803e-126
2.92069e-126
6.22475e-127
7.75554e-127
1.74245e-122
2.20592e-122
7.28954e-122
8.97157e-122
2.89792e-122
3.54663e-122
1.74156e-116
0
8.13463e-42
-0.0056842
2.02866e-51
4.41778e-40
7.82428e-40
3.97522e-43
9.15824e-43
1.20108e-40
1.84841e-41
2.78697e-40
0
3.06152e-38
2.46152e-37
9.21963e-36
2.6563e-34
3.35047e-33
1.98514e-32
5.61474e-32
1.79711e-31
4.68303e-31
8.70898e-31
1.3254e-30
1.50253e-30
1.24675e-30
8.07285e-31
5.34191e-31
3.22833e-31
1.4873e-31
6.48922e-32
3.27517e-32
1.28341e-32
3.54064e-33
6.85904e-34
8.35448e-35
7.0431e-36
5.75383e-37
3.06277e-38
9.09682e-40
1.40166e-41
1.29178e-43
2.512e-46
-1.31953e-50
-2.42168e-52
-7.67508e-58
1.60378e-65
7.00008e-71
4.40581e-79
2.23757e-84
7.11526e-94
1.93073e-100
2.22212e-44
5.12686e-44
-0.0376528
1.14871e-52
2.91233e-52
0
0
0.00417237
0.0862443
0.000334475
0.000353604
-0.000130732
0.00036013
-0.000125262
0.000306527
-0.000171876
0.000547166
-0.000181237
0.000200997
-7.04254e-05
0.000568072
-0.000148938
0.000192309
-7.01331e-05