/*--------------------------------*- C++ -*----------------------------------*\
  =========                 |
  \\      /  F ield         | OpenFOAM: The Open Source CFD Toolbox
   \\    /   O peration     | Website:  https://openfoam.org
    \\  /    A nd           | Version:  7
     \\/     M anipulation  |
\*---------------------------------------------------------------------------*/
FoamFile
{
    version     2.0;
    format      ascii;
    class       volScalarField;
    location    "0.4";
    object      T;
}
// * * * * * * * * * * * * * * * * * * * * * * * * * * * * * * * * * * * * * //

dimensions      [0 0 0 1 0 0 0];

internalField   nonuniform List<scalar> 
5936
(
0.509388
0.913124
0.999003
0.982342
1.00586
1.01594
1.00206
1.00701
1.00021
1.00101
0.999887
0.999757
0.999949
0.999843
0.999998
0.999979
1
1
0.999999
0.999998
0.999999
0.999996
0.999999
0.999998
1
1
1
1
1
1
1
1
1
1
1
1
1
1
1
1
1
1
1
1
1
1
1
1
1
1
1
1
1
1
1
1
1
1
1
1
1
1
1
1
1
1
1
1
1
1
1
1
1
1
1
1
1
1
1
1
1
1
1
1
1
1
1
1
1
1
1
1
1
1
1
1
1
1
1
0.116255
-0.00308428
-0.000220689
4.0889e-05
-2.9476e-07
4.19243e-07
-1.90448e-09
-1.27567e-08
2.05802e-09
3.86408e-10
1.68219e-12
-5.05683e-12
-5.47426e-13
-1.18052e-14
2.0368e-15
2.21332e-16
4.55182e-18
-4.68778e-19
-3.4415e-20
-7.6574e-22
2.77808e-23
2.61393e-24
7.958e-26
2.06221e-28
5.01826e-45
-2.21635e-28
-2.61605e-27
-4.80151e-25
-4.09396e-24
1.64505e-22
-8.11815e-22
4.93377e-20
5.74973e-19
-1.50424e-18
9.4089e-17
1.58155e-15
1.99675e-15
-4.29057e-14
-2.83394e-13
-7.69014e-13
2.32292e-12
-5.66015e-13
5.9421e-12
-1.08563e-10
2.13249e-10
1.53853e-10
1.77368e-10
1.63446e-09
1.87612e-09
2.67792e-09
0.999997
1
0.999998
0.999997
1.00002
1.00001
0.999964
0.999998
0.999977
0.999963
0.999977
0.999988
1.0003
1.00016
1.00017
1.00029
0.998498
0.999141
0.998442
0.998243
1.00281
1.00102
1.00934
1.00712
1.01002
1.01017
0.991941
0.998227
0.944442
0.960121
0.863089
0.88893
0.757712
0.791237
0.636135
0.674822
0.511588
0.548751
0.397427
0.430378
0.291738
0.321549
0.206567
0.23013
0.140393
0.158676
0.0916308
0.104815
0.0595465
0.0682654
0.0369176
0.0429824
0.0222994
0.0261879
0.0132342
0.0156087
0.0075684
0.0090346
0.00426368
0.00511984
0.00236442
0.00284437
0.00127809
0.00154963
0.000671441
0.000821626
0.000350109
0.00042969
0.000174867
0.000216894
8.81906e-05
0.000109245
4.35287e-05
5.43231e-05
2.06677e-05
2.60452e-05
9.96934e-06
1.25367e-05
4.63215e-06
5.89504e-06
2.10816e-06
2.6956e-06
9.85628e-07
1.25559e-06
4.41876e-07
5.70347e-07
2.01617e-07
2.61097e-07
8.80953e-08
1.17065e-07
4.00411e-08
5.41544e-08
1.89474e-08
2.60125e-08
7.27734e-09
3.72491e-09
1.02897e-08
-1.94527e-28
2.23627e-09
0.0134562
-0.00159041
6.85847e-05
7.16862e-06
1.22683e-07
1.77956e-07
-3.13193e-08
-4.81176e-10
1.22925e-09
7.47096e-11
-7.86384e-12
-2.01188e-12
-1.06253e-13
2.15259e-15
8.15599e-16
4.3163e-17
-6.69878e-19
-1.44912e-19
-6.25343e-21
-1.1861e-23
1.03905e-23
5.10793e-25
8.9068e-27
-0.000922493
-2.53528e-28
3.22751e-09
1.71963e-27
8.87162e-26
7.37816e-25
-4.2614e-24
-1.95406e-22
-4.24078e-21
-2.42854e-19
2.99842e-20
-9.70436e-18
-4.90742e-16
-3.09901e-15
9.8673e-15
1.11369e-13
5.56771e-13
3.30182e-13
-5.22112e-12
6.52563e-12
1.71762e-11
-4.74978e-11
2.38137e-10
-1.83669e-10
9.86987e-10
2.11157e-09
0.000131158
0.0664675
2.03786e-06
0.457247
0.000144038
3.04458e-05
7.01031e-07
5.32104e-07
-8.9628e-08
-2.34137e-09
4.09399e-09
2.9664e-10
-2.5715e-11
-7.16913e-12
-4.40684e-13
4.67001e-15
2.91582e-15
1.78532e-16
-7.27962e-19
-5.55683e-19
-2.73474e-20
-2.13439e-22
3.80283e-23
2.19915e-24
4.58072e-26
-5.29717e-28
7.14311e-26
2.49738e-25
-5.37468e-24
-3.22009e-22
-5.43249e-21
-2.78681e-19
-1.67612e-19
-9.17753e-18
-4.96322e-16
-3.31388e-15
7.79568e-15
1.03009e-13
5.95832e-13
4.42133e-13
-6.23915e-12
8.32023e-12
1.33583e-11
-4.9739e-11
3.24707e-10
-1.91161e-10
1.39669e-09
2.89155e-09
1.88025e-27
1.15937e-06
1.12833e-08
-4.00628e-08
5.83247e-09
1.42409e-09
1.25984e-11
-1.64972e-11
-2.11703e-12
-5.54771e-14
6.62279e-15
8.50657e-16
2.33997e-17
-1.66517e-18
-1.3753e-19
-3.79522e-21
8.16648e-23
1.04642e-23
3.62222e-25
2.7643e-27
-4.63908e-25
-2.57795e-24
2.05841e-22
-7.59559e-22
5.71092e-20
7.21656e-19
-1.54131e-18
9.18894e-17
1.65132e-15
2.81796e-15
-3.89138e-14
-2.9204e-13
-8.44848e-13
2.60069e-12
-6.19807e-13
8.62108e-12
-1.35585e-10
2.82373e-10
1.9767e-10
3.06211e-10
2.30565e-09
2.70285e-09
-0.00556435
-0.00532451
4.88133e-28
0.596807
-0.00118071
0.957427
1.0026
0.985737
1.00456
1.0082
1.00136
1.00401
0.999968
1.00053
0.99987
0.999795
0.999989
0.999959
1.00002
1.00005
1.00001
1.00003
1
1.00001
0.999999
0.999998
0.999999
0.999998
1
1
1
1
1
1
1
1
1
1
1
1
1
1
1
1
1
1
1
1
1
1
1
1
1
1
1
1
1
1
1
1
1
1
1
1
1
1
1
1
1
1
1
1
1
1
1
1
1
1
1
1
1
1
1
1
1
1
1
1
1
1
1
1
1
1
1
1
1
0.999999
1
5.82171e-27
0.00151932
6.25099e-05
0.260823
-5.74924e-06
3.92436e-08
2.69469e-07
-5.43758e-08
-4.80157e-09
1.19232e-09
1.76306e-10
5.90464e-12
-1.16538e-12
-1.21503e-13
-4.11984e-15
3.04969e-16
3.78062e-17
9.73133e-19
-3.92537e-20
-4.28126e-21
-1.2716e-22
9.26748e-25
2.22122e-25
7.4488e-27
-6.87258e-25
-0.00316848
-0.00458945
-0.00327828
4.78373e-29
5.59972e-09
9.92752e-09
-3.6785e-06
-9.01959e-06
-1.35462e-06
0.532986
-1.54225e-24
2.9739e-22
-1.27506e-21
6.947e-20
1.26554e-18
-2.60615e-18
1.03107e-16
2.41318e-15
6.63701e-15
-4.76984e-14
-4.36972e-13
-1.51075e-12
3.24823e-12
2.37841e-12
1.21992e-11
-2.36676e-10
5.4211e-10
2.14716e-10
8.76632e-10
4.13702e-09
4.06833e-09
7.19624e-09
0.0517235
0.189634
0.0225262
-9.53713e-05
-0.00069006
4.41154e-05
1.58499e-05
-7.0419e-06
1
0.999997
1.00001
1.00001
0.99998
1
0.999986
0.999968
1.00001
0.999989
1.00025
1.00016
1.00009
1.00035
0.99866
0.999177
0.99873
0.998025
1.00275
1.00046
1.0088
1.00699
1.00887
1.0116
0.99035
1.00253
0.942685
0.966597
0.863687
0.90058
0.760489
0.804702
0.643157
0.691172
0.517699
0.567671
0.398254
0.441828
0.29461
0.332553
0.208731
0.238521
0.142836
0.16525
0.0940014
0.110552
0.06066
0.0714529
0.0379269
0.0451858
0.0232364
0.0279587
0.0136723
0.0166407
0.0078241
0.00957241
0.00448113
0.00549759
0.00244626
0.00304523
0.00131103
0.001638
0.000704626
0.000884283
0.000363246
0.000458735
0.000182844
0.00023346
9.21971e-05
0.000117199
4.54827e-05
5.81979e-05
2.19335e-05
2.8428e-05
1.05407e-05
1.36146e-05
4.92855e-06
6.40819e-06
2.28008e-06
2.98918e-06
1.04565e-06
1.36369e-06
4.75915e-07
6.24126e-07
2.24127e-07
2.9181e-07
1.04445e-07
1.36649e-07
5.45466e-08
7.20058e-08
0.780431
4.02206e-27
0.830481
8.68999e-27
-5.17929e-19
-3.75935e-19
4.14971e-05
3.82245e-26
3.04631e-27
1.59211e-18
7.1999e-07
-1.41892e-08
-2.58528e-08
1.11169e-09
5.28489e-10
4.49265e-11
-1.3998e-12
-4.31371e-13
-2.73106e-14
8.50765e-17
1.29754e-16
7.45425e-18
2.28415e-20
-1.61955e-20
-8.42387e-22
-1.16838e-23
7.78482e-25
4.67483e-26
-7.99676e-25
-8.92614e-21
-4.25982e-21
-1.55178e-24
1.04682e-23
-2.43199e-26
4.15868e-22
-5.7123e-25
-7.29446e-22
1.02682e-19
1.34779e-06
-8.88277e-19
-6.73511e-18
-6.3437e-16
-5.29458e-15
5.36362e-15
1.39168e-13
9.78815e-13
1.325e-12
-1.10709e-11
1.48367e-11
-2.10909e-12
7.55058e-12
4.90639e-10
-3.10126e-10
2.70751e-09
4.89358e-09
-1.08784e-07
-1.77212e-14
-3.76259e-13
7.71782e-26
-2.64463e-12
2.70474e-08
2.88912e-11
5.29552e-09
1.0405e-09
3.11139e-10
6.57014e-10
-2.95346e-10
1.73103e-11
1.50619e-12
4.46049e-12
-1.75892e-12
-5.12583e-13
-5.44846e-14
7.14354e-15
3.28363e-26
7.33994e-25
-1.91506e-24
-5.35559e-22
-1.40835e-20
-7.28913e-20
4.40939e-18
1.17658e-16
6.47822e-16
6.26601e-09
3.3668e-09
-3.89561e-10
6.51812e-10
-2.55203e-11
3.26421e-12
1.79777e-11
-1.358e-11
1.37893e-12
1.19804e-12
1.65173e-13
7.15809e-15
-6.18308e-15
-8.27834e-16
-1.41309e-17
-8.38707e-22
1.736e-25
1.86178e-24
-6.64002e-23
-3.16971e-21
-4.53036e-20
3.94194e-19
2.87985e-17
3.53696e-16
-1.38002e-15
-9.53162e-14
-1.2501e-12
-9.37091e-14
1.49425e-10
1.46744e-09
9.21116e-11
-7.05511e-08
7.03709e-08
-9.83911e-19
5.19193e-10
2.64398e-09
-1.98618e-08
7.92826e-07
-1.03122e-24
2.98536e-15
-1.49752e-21
1.45881e-16
-2.54108e-18
8.02109e-05
-6.46683e-19
0.994133
1.00615
1.00363
1.00319
1.00652
1.00017
1.00137
0.999567
0.999318
0.999809
0.999464
0.999985
0.999883
1.00002
1.00002
1.00001
1.00002
0.999999
1
0.999998
0.999996
0.999999
0.999996
0.999999
0.999998
0.999999
0.999998
0.999999
0.999998
0.999999
0.999998
0.999999
0.999998
0.999999
0.999998
0.999999
0.999998
0.999999
0.999998
0.999999
0.999998
0.999999
0.999998
0.999999
0.999998
0.999999
0.999998
0.999999
0.999998
0.999999
0.999998
0.999999
0.999998
0.999999
0.999998
0.999999
0.999998
0.999999
0.999998
0.999999
0.999998
0.999999
0.999998
0.999999
0.999998
0.999999
0.999998
0.999999
0.999998
0.999999
0.999998
0.999999
0.999998
0.999999
0.999998
0.999999
0.999998
0.999999
0.999997
0.999999
0.999997
0.999999
0.999997
0.999999
0.999997
0.999997
0.999997
0.999997
0.999998
0.999997
-5.87901e-21
8.23596e-12
4.00579e-15
3.81981e-08
5.27629e-24
-2.66978e-18
-6.35711e-14
7.78482e-07
4.62986e-07
1.55283e-06
-2.04423e-08
-2.68271e-08
-8.68639e-10
8.86874e-09
2.83486e-10
1.59879e-08
3.86691e-11
3.00011e-11
-9.78805e-27
-3.00379e-13
-1.79538e-13
-4.22248e-13
-1.75197e-13
1.04405e-08
-3.36779e-15
2.31895e-17
1.40952e-17
7.00179e-19
2.60571e-21
-1.3875e-21
-6.52228e-23
-8.85293e-25
-3.61305e-06
-8.15001e-07
3.34034e-10
5.89788e-10
-1.24733e-24
6.70473e-24
2.46464e-18
3.04604e-18
-2.89013e-18
5.48823e-22
1.40816e-16
1.11039e-19
1.62187e-19
-9.03172e-19
3.43151e-23
7.68784e-22
0.000171161
0.000192894
-1.07686e-17
2.04923e-16
-2.253e-21
-1.24063e-20
-9.41554e-16
-1.23795e-15
4.9202e-15
1.38792e-14
-5.68145e-14
-6.43443e-13
-2.85888e-12
4.73734e-12
9.75101e-12
1.88795e-11
-4.76582e-10
1.17364e-09
2.8941e-10
2.53924e-09
6.38562e-09
1.13137e-08
2.53129e-07
8.36162e-08
1.00001
1
1
1.00001
0.999984
0.999971
1
0.999985
1.00017
1.00009
1.00017
1.00038
0.998943
0.999421
0.998628
0.998115
1.00164
0.999815
1.00758
1.00581
1.0092
1.01128
0.994404
1.00491
0.951582
0.974547
0.878619
0.913184
0.78144
0.8249
0.66514
0.71479
0.539801
0.588867
0.419113
0.463339
0.31172
0.351043
0.221612
0.252859
0.153099
0.176477
0.102072
0.119556
0.0658379
0.0774558
0.0413259
0.0493602
0.0253591
0.0304295
0.0151436
0.0183514
0.00869862
0.010688
0.00490398
0.00600705
0.00272471
0.00336996
0.00147636
0.00184241
0.000784088
0.000981484
0.000407603
0.000513823
0.000206843
0.00026386
0.000102358
0.000130607
5.09245e-05
6.50823e-05
2.51125e-05
3.2388e-05
1.19848e-05
1.55117e-05
5.65423e-06
7.38021e-06
2.60362e-06
3.41554e-06
1.2017e-06
1.57284e-06
5.43203e-07
7.16744e-07
2.52562e-07
3.27934e-07
1.2419e-07
1.59235e-07
1.22721e-10
3.16126e-10
1.1331e-10
1.15404e-08
1.91146e-08
1.91136e-23
1.74259e-26
4.48889e-12
7.39908e-13
-0.00209086
4.36533e-26
0.92558
7.79291e-07
4.49127e-08
2.77941e-26
-5.34139e-14
-1.70769e-14
1.38574e-08
1.55443e-10
-9.83277e-08
-5.46977e-08
-7.02894e-08
-7.38967e-09
-1.85051e-13
-1.24705e-14
-4.26331e-16
3.94272e-17
3.64703e-18
9.38039e-20
-3.58137e-21
-3.33078e-22
-9.89443e-24
-1.14218e-24
0.00947279
1.56229e-08
-1.08859e-05
-1.12583e-05
-1.08822e-14
-9.2161e-15
0.959572
-1.7435e-21
-3.60827e-18
2.15727e-13
1.9588e-13
-7.93471e-16
-7.96524e-13
1.33795e-15
1.88089e-12
3.30094e-12
-2.28564e-11
2.98924e-11
-4.91562e-11
1.68193e-10
9.06491e-10
-4.71317e-10
7.9863e-09
0.076734
0.0425135
7.16682e-08
-2.38438e-22
6.53125e-07
2.91796e-05
-1.96834e-05
2.98174e-09
4.47768e-10
1.43338e-09
-6.00319e-10
2.83602e-11
9.03625e-12
-2.8455e-24
-5.04332e-24
-5.91199e-10
1.20926e-09
1.32184e-10
-0.00337826
0.000562657
-0.00375695
-4.71006e-11
0.684452
3.6998e-11
-2.8025e-11
3.54129e-12
-4.20886e-23
-1.15666e-21
-5.50606e-21
4.20517e-19
1.17122e-17
7.70123e-17
-2.43105e-08
6.85765e-26
-0.00022091
-0.000991332
0.000204862
-2.0242e-21
0.786931
8.05875e-26
-1.98338e-15
-3.86825e-21
3.89203e-20
-1.6448e-25
2.63775e-18
-4.71133e-09
4.10472e-17
-1.27889e-16
-1.34352e-24
1.48365e-14
2.23469e-12
-2.08529e-17
-2.92251e-21
-3.54858e-18
-6.13775e-14
6.92481e-12
-3.39248e-12
0.322933
2.12759e-11
1.0091
1.00853
1.01706
1.00223
1.00742
0.999794
1.00081
0.999653
0.999394
0.999896
0.999686
1.00001
0.999965
1.00002
1.00003
1
1.00002
0.999998
1
0.999998
1
0.999999
1
0.999999
1
1
1
0.999999
1
0.999999
1
1
1
0.999999
1
0.999999
1
0.999999
1
0.999999
1
0.999999
1
0.999999
1
0.999999
1
0.999999
1
0.999999
1
0.999999
1
0.999999
1
0.999999
1
0.999999
1
0.999999
1
0.999999
1
0.999999
1
0.999999
1
0.999999
1
0.999999
1
0.999999
1
0.999999
1
1
1
1
1
1
1
1
1
1
1.00001
1
-2.32354e-06
-1.37299e-25
3.235e-12
-2.03925e-22
-5.14745e-14
-3.90746e-21
9.74855e-09
-5.06658e-17
3.2892e-08
-2.49952e-23
5.16598e-11
5.25295e-11
2.51208e-14
-2.41394e-14
-1.84646e-10
8.6527e-21
2.13477e-08
-2.05436e-24
-2.08576e-15
-4.18002e-16
-2.53436e-16
-1.80698e-08
1.23832e-18
6.10623e-20
3.89811e-20
4.41253e-22
-1.7458e-22
-3.03475e-10
-1.60757e-14
2.61729e-14
-1.48519e-09
2.60085e-08
2.62474e-23
-4.35181e-18
0.000166531
1.93146e-16
-5.59973e-21
-4.0643e-14
-5.19358e-14
0.873027
5.4436e-12
-1.01016e-12
3.8315e-12
0.211792
-8.80339e-23
-7.67396e-23
7.3384e-12
8.74166e-12
-3.55038e-24
-7.25438e-24
3.43994e-23
2.99815e-11
1.75143e-11
-2.12042e-10
6.56391e-10
1.58267e-09
3.64815e-10
-4.70064e-10
1.46234e-08
7.85698e-07
8.80168e-22
-4.58747e-21
1.00001
1.00001
0.99997
0.999968
0.999989
0.99997
1.00011
1.00003
1.00027
1.00039
0.999232
0.999729
0.998479
0.998244
1.0007
0.999057
1.00665
1.00449
1.00981
1.01072
0.998403
1.00748
0.961024
0.982668
0.895449
0.928053
0.804358
0.848029
0.689876
0.740577
0.563547
0.614777
0.440261
0.488567
0.329281
0.37119
0.236966
0.270398
0.16506
0.191031
0.110264
0.12938
0.0718554
0.084731
0.0454835
0.0544254
0.0279559
0.0335806
0.0169077
0.0205072
0.00968901
0.0120201
0.0053735
0.00666405
0.00304751
0.0037837
0.00165036
0.00207605
0.000876082
0.00110321
0.0004609
0.000585981
0.000231725
0.000298081
0.000116011
0.000148836
5.82132e-05
7.48826e-05
2.85544e-05
3.69966e-05
1.39123e-05
1.80648e-05
6.60764e-06
8.66768e-06
3.04588e-06
4.02366e-06
1.41619e-06
1.86411e-06
6.42217e-07
8.54619e-07
2.91197e-07
3.83937e-07
1.33245e-07
1.71883e-07
-1.43847e-14
-1.40411e-14
-4.96153e-14
1.89476e-08
2.49488e-08
2.7211e-08
5.78936e-11
3.22953e-11
-1.01859e-05
-8.81814e-06
3.55739e-18
3.58703e-18
6.83864e-09
1.86762e-08
9.05978e-23
8.5234e-23
1.2484e-21
-6.30265e-09
-1.77924e-08
-5.07901e-09
2.5471e-07
7.92694e-07
1.52624e-07
-7.91448e-15
-2.22852e-14
-6.39364e-15
-2.84347e-24
-2.36935e-22
0.000386773
0.000200629
8.41841e-07
5.44797e-08
1.00005e-18
3.09195e-19
8.90156e-08
-1.53322e-15
7.37428e-11
6.14603e-12
2.98965e-08
4.10781e-21
1.84204e-11
-4.80427e-24
-3.07038e-08
8.2804e-09
2.18136e-18
-3.75174e-08
2.22395e-19
1.60335e-06
4.48422e-12
1.15571e-12
-4.05771e-08
6.73229e-18
9.28236e-08
9.39303e-08
-1.65844e-17
-9.64099e-10
-1.60491e-10
-7.93006e-06
-1.92102e-05
-6.39545e-18
-4.62113e-18
0.975009
-1.85045e-17
0.658389
2.73392e-16
-4.24562e-21
-6.02882e-21
2.22452e-13
6.47349e-15
-1.83491e-14
2.21327e-13
0.739487
-1.21525e-12
5.80996e-10
1.00093
-5.50368e-12
-4.50373e-11
0.0211093
-9.12602e-10
2.47605e-09
7.01706e-11
1.10313e-11
9.93703e-11
4.34555e-18
-7.21245e-18
8.22863e-12
-1.85117e-23
-1.07662e-18
5.35356e-18
-5.57396e-11
-0.00115477
-0.000198669
9.35543e-14
-1.87896e-14
-0.00506846
-0.00384008
-1.81617e-15
-1.32647e-15
-6.4978e-12
0.917649
-3.39809e-17
-1.46878e-20
2.14782e-09
6.63729e-10
3.14029e-11
-1.16518e-09
3.05572e-09
-1.18697e-21
-7.99399e-06
-1.06074e-11
1.00927
1.00429
1.00997
1.0005
1.00289
0.99963
0.999825
0.999776
0.999524
0.999966
0.999832
1.00003
1.00001
1.00002
1.00004
1.00001
1.00002
1.00001
1.00001
1.00001
1.00001
1.00001
1.00001
1.00001
1.00001
1.00001
1.00001
1.00001
1.00001
1.00001
1.00001
1.00001
1.00001
1.00001
1.00001
1.00001
1.00001
1.00001
1.00001
1.00001
1.00001
1.00001
1.00001
1.00001
1.00001
1.00001
1.00001
1.00001
1.00001
1.00001
1.00001
1.00001
1.00001
1.00001
1.00001
1.00001
1.00001
1.00001
1.00001
1.00001
1.00001
1.00001
1.00001
1.00001
1.00001
1.00001
1.00001
1.00001
1.00001
1.00001
1.00001
1.00001
1.00001
1.00001
1.00001
1.00001
1.00002
1.00001
1.00002
0.705216
8.46587e-08
9.18759e-20
4.15351e-14
9.00691e-20
-7.67133e-16
-3.66702e-17
4.4914e-08
8.68399e-08
-8.71004e-11
-3.70381e-17
2.57685e-08
1.65323e-11
6.75461e-22
1.75974e-08
1.07024e-10
2.06146e-07
1.3861e-07
0.32326
4.59192e-21
2.86823e-21
1.47133e-13
5.07213e-09
-2.36689e-15
-2.12262e-15
2.3541e-20
1.69372e-20
-1.68194e-09
-5.8105e-12
2.03812e-11
2.47356e-19
2.43268e-19
1.77707e-19
-8.36199e-21
-1.43813e-20
4.11266e-10
-0.00929624
0.00117444
-8.69906e-24
5.44706e-23
3.53384e-22
1.05381e-23
3.05665e-12
-1.07477e-10
-5.4108e-10
-2.13061e-09
0.0676587
1.62139e-11
8.92576e-12
2.48939e-19
-0.00541613
0.000585312
-1.37606e-18
0.0712042
0.0315687
0.109768
2.01909e-09
6.34154e-09
0.882952
0.720368
-1.93359e-11
-6.26791e-10
-1.90931e-16
-1.35236e-16
0.99996
0.999981
0.999964
1.00006
0.999988
1.00034
1.00041
0.999547
1.00004
0.998486
0.998509
0.999828
0.998448
1.00549
1.00313
1.00964
1.00971
1.00221
1.00972
0.971831
0.991219
0.914069
0.944963
0.829813
0.871743
0.720077
0.771291
0.592587
0.647373
0.466493
0.518313
0.353704
0.398019
0.256797
0.293611
0.179811
0.208331
0.121978
0.143278
0.0795416
0.0944859
0.0506498
0.060816
0.0314266
0.0379533
0.0189766
0.023182
0.0110769
0.0137359
0.00622448
0.00776784
0.00348888
0.00435389
0.0019041
0.00240168
0.00101577
0.00128467
0.000533267
0.000679468
0.000272395
0.000351302
0.000136192
0.000176621
6.7933e-05
8.82551e-05
3.39661e-05
4.41136e-05
1.66683e-05
2.1812e-05
7.88937e-06
1.0421e-05
3.74743e-06
4.96602e-06
1.73161e-06
2.31794e-06
7.88743e-07
1.06779e-06
3.64617e-07
4.99468e-07
1.52484e-07
5.2789e-05
0.0001749
1.29678e-05
-1.4536e-05
-1.92938e-05
-8.6906e-21
-1.2706e-20
-4.47053e-18
-1.66974e-18
9.11863e-10
2.08241e-08
5.43908e-12
-1.26354e-11
1.31018e-13
4.44567e-12
6.22438e-13
-5.97701e-16
-9.48484e-09
2.22332e-22
6.79196e-10
4.17307e-08
7.14862e-20
-0.0110095
-0.00772741
-1.48706e-18
2.21427e-07
4.39998e-08
4.80698e-08
8.7094e-11
8.12555e-11
0.18927
4.19652e-19
1.96814e-11
8.68301e-12
1.37506e-10
6.36683e-07
5.93111e-07
-2.63869e-14
4.35291e-14
3.64202e-09
2.62031e-09
-1.70847e-12
-1.46008e-12
-1.44487e-17
1.72757e-05
-1.26373e-05
2.19993e-09
-5.69484e-18
-6.88835e-18
-6.46271e-17
-9.59852e-07
-4.15893e-14
-4.32116e-14
-2.25021e-17
2.68688e-16
7.92491e-15
-1.97193e-10
-9.48141e-11
1.00727
0.992244
-5.39956e-24
2.5778e-19
1.80588e-11
8.71141e-23
1.11527e-22
2.44305e-22
0.239596
7.1549e-10
-5.53016e-06
3.6105e-19
-1.18507e-08
-2.93382e-09
-1.82299e-08
0.999971
1.00001
-2.00371e-14
-1.32348e-14
1.10418e-13
4.17476e-16
9.12275e-07
7.09488e-07
1.28821e-06
-0.000320848
7.65559e-18
9.585e-18
-1.52018e-17
-4.44756e-15
-5.26965e-15
3.30926e-08
-0.00301053
-0.00762247
-0.00187462
7.54738e-13
5.16004e-13
-2.03006e-18
1.21482e-21
1.92882e-21
-1.01743e-20
-9.40666e-09
-3.85467e-09
6.52814e-12
4.12247e-08
-2.55202e-15
-1.92184e-15
0.926393
5.38021e-08
-1.90247e-18
5.45786e-09
1.00653
1.0016
1.0051
0.99979
1.00057
0.999641
0.999484
0.999867
0.999643
0.999996
0.999914
1.00002
1.00001
1
1
0.999996
0.999983
0.999995
0.999976
0.999994
0.999974
0.999995
0.999974
0.999996
0.999976
0.999995
0.999976
0.999995
0.999976
0.999995
0.999975
0.999995
0.999976
0.999994
0.999976
0.999994
0.999974
0.999994
0.999975
0.999994
0.999974
0.999994
0.999975
0.999995
0.999975
0.999995
0.999976
0.999995
0.999975
0.999995
0.999976
0.999996
0.999977
0.999995
0.999976
0.999994
0.999974
0.999994
0.999974
0.999994
0.999975
0.999994
0.999975
0.999995
0.999975
0.999995
0.999976
0.999994
0.999974
0.999991
0.999971
0.999994
0.999968
0.999996
0.999974
0.99997
0.461912
1.00001
-5.6011e-06
1.96775e-10
5.64101e-09
5.84186e-08
2.39848e-20
4.10652e-09
-6.25614e-17
7.61159e-15
1.10121e-20
-1.52386e-10
2.2321e-10
0.441637
-2.34594e-18
3.80924e-19
4.95186e-19
-2.3942e-18
-1.59901e-10
8.23218e-10
6.10085e-09
3.35138e-16
4.80271e-07
4.71762e-16
6.98311e-08
2.97491e-12
7.82712e-12
2.38671e-12
7.03488e-21
0.00019462
0.000257551
0.480209
2.02911e-20
1.87402e-20
0.980049
-2.37714e-19
-6.03933e-20
8.76844e-12
0.145563
9.95438e-15
1.23714e-14
-2.94048e-14
6.52222e-14
-3.51804e-15
0.380169
9.48674e-08
3.34412e-13
-1.62539e-12
1.05171e-11
0.999974
1.00921
1.01154
1.00152
3.18366e-11
-6.91594e-12
-1.89227e-10
-2.67488e-09
6.2631e-09
0.811424
0.898624
0.516608
1.01544e-08
5.8761e-09
-1.06279e-09
-3.14571e-09
-7.24634e-10
-1.32172e-09
-3.48915e-09
-2.14112e-16
-1.82591e-16
1.00001
1.00034
1.00028
0.999859
1.00026
0.998664
0.998921
0.999164
0.998256
1.00417
1.00176
1.00897
1.00809
1.00553
1.01062
0.982534
0.998433
0.932694
0.961829
0.856656
0.895711
0.752787
0.803296
0.626709
0.681997
0.500736
0.552782
0.383152
0.431453
0.28013
0.320144
0.199414
0.230223
0.136742
0.160386
0.0899146
0.10655
0.0581355
0.0695875
0.0359944
0.0437047
0.0218768
0.0265874
0.0130816
0.0161218
0.0073283
0.00921236
0.00409153
0.00510491
0.00226037
0.00285941
0.00119543
0.00152912
0.000630542
0.00080593
0.000329187
0.000425763
0.000164911
0.000214341
8.37851e-05
0.00010863
4.1933e-05
5.46946e-05
2.04053e-05
2.6629e-05
9.93934e-06
1.31663e-05
4.68427e-06
6.24732e-06
2.24953e-06
2.99437e-06
1.07548e-06
1.45716e-06
5.15603e-07
7.13659e-07
1.32452e-07
1.50454e-07
2.2892e-07
-1.68003e-20
-1.38822e-21
-1.37945e-17
-9.14362e-18
4.14578e-08
8.78826e-08
-1.91619e-11
3.60196e-11
-1.69287e-10
-1.62202e-09
-3.56413e-09
4.00334e-20
-2.1509e-05
-1.4177e-05
2.45143e-13
6.92927e-14
1.24481e-09
2.29989e-10
1.6735e-10
-1.04637e-10
-2.36082e-11
5.01879e-08
1.15511e-12
9.90442e-13
-4.64935e-17
1.01923e-14
4.95253e-15
-1.34367e-18
0.227186
5.49048e-21
1.64503e-21
-2.22617e-11
7.93919e-05
3.32932e-05
8.11725e-07
1.02284e-06
6.51149e-14
-0.0012589
8.55874e-08
-7.06039e-17
6.29137e-16
1.09953e-07
1.23221e-07
-4.46525e-16
-5.79118e-13
1.2879e-08
-6.82521e-10
-5.24149e-10
1.30518e-21
4.32276e-22
2.1802e-21
2.47348e-08
5.38869e-09
0.999926
-8.28027e-18
-1.20046e-16
0.0898469
0.0176251
-1.58174e-13
-1.79262e-12
3.28783e-07
0.000143144
0.000315417
9.14775e-05
-2.57889e-17
-1.26237e-17
1.24767e-17
1.507e-17
-2.72043e-17
-0.00493042
-0.0038197
-3.06225e-15
-2.23372e-15
4.34068e-07
1.54246e-07
-1.80169e-20
-2.14634e-20
-2.69277e-20
-1.42438e-05
-5.17781e-06
-1.6167e-10
-4.93092e-16
-7.71656e-14
-8.13019e-14
-4.82347e-16
-2.01271e-19
5.6298e-15
1.00312
1.00029
1.00203
0.999576
0.999749
0.999716
0.999481
0.999902
0.99976
0.999971
0.999939
0.999969
0.999978
0.999955
0.999963
0.999949
0.999946
0.999946
0.999939
0.999946
0.999937
0.999945
0.999936
0.999946
0.999937
0.999945
0.999935
0.999946
0.999935
0.999947
0.999939
0.999945
0.999938
0.999949
0.999936
0.999948
0.99994
0.999949
0.999937
0.999945
0.999938
0.999947
0.999938
0.999946
0.999937
0.999946
0.999938
0.999945
0.999937
0.999945
0.999936
0.999945
0.999937
0.999946
0.999937
0.999947
0.999936
0.999947
0.999939
0.999944
0.999934
0.999943
0.999933
0.999941
0.999936
0.999936
0.999934
0.999931
0.999929
5.86511e-20
-3.96928e-09
-4.77519e-18
-4.38359e-17
2.27282e-05
2.33091e-07
1.40566e-11
2.01529e-08
2.33603e-10
-0.000374506
0.00016879
1.75133e-07
3.70154e-07
1.9356e-07
2.48082e-07
2.87744e-07
-1.07894e-18
-7.33368e-19
6.09537e-09
-3.96456e-11
2.00008e-08
9.16443e-09
1.39801e-08
2.52936e-08
2.56891e-22
1.0002
-1.30321e-18
-5.83399e-17
1.00008
1.00035
0.998965
0.99938
0.998808
0.998159
1.00276
1.00051
1.00739
1.00578
1.00774
1.01074
0.992116
1.00444
0.952447
0.97722
0.883289
0.919947
0.786955
0.833429
0.664373
0.720379
0.53529
0.590444
0.417207
0.466434
0.308933
0.352657
0.221271
0.254731
0.154421
0.179596
0.102332
0.121585
0.0663614
0.0792059
0.0420033
0.0508531
0.025278
0.0309233
0.0153181
0.0187123
0.00876613
0.0110014
0.00482239
0.00607867
0.00269237
0.00337963
0.00145785
0.00185986
0.000762239
0.00097585
0.00040703
0.000519533
0.000205242
0.000267976
0.000103093
0.00013428
5.20303e-05
6.7951e-05
2.50584e-05
3.30586e-05
1.2394e-05
1.61743e-05
6.02745e-06
7.9403e-06
2.91937e-06
3.84349e-06
1.50635e-06
1.97807e-06
7.97609e-07
5.43272e-07
1.11461e-06
3.9954e-14
-3.33424e-13
-1.24446e-07
-2.7618e-06
1.00661e-06
-1.74108e-17
-1.39634e-17
1.47102e-07
2.22691e-07
6.27392e-11
-3.13183e-11
-0.00742254
-0.00937779
-3.07814e-09
-5.58208e-09
2.4356e-09
2.19915e-08
-7.88071e-09
-4.80102e-09
4.68729e-10
3.48908e-10
3.61179e-22
1.16752e-21
5.28712e-22
0.800146
4.3386e-14
1.00667
8.43699e-19
6.23573e-19
0.999933
1.00739
1.00818
-7.87663e-12
1.71038e-12
3.17805e-09
6.6223e-14
1.00012
3.4036e-13
-3.51747e-18
2.74827e-08
2.93972e-14
2.05743e-14
1.59478e-08
0.999916
1.01121
5.50891e-13
3.10399e-13
-0.00306901
-1.33119e-13
6.48854e-14
0.000166249
0.000111617
-1.37585e-07
-2.7023e-15
-2.14177e-17
-3.32971e-10
-2.58821e-10
-2.52469e-20
-0.0016188
7.5263e-16
-3.94712e-15
-3.76824e-11
-3.29393e-11
7.41514e-16
-1.21919e-19
6.83986e-22
9.61882e-08
-6.23698e-22
-8.59238e-10
1.02521e-07
0.967016
0.989996
0.880749
1.10213e-07
8.7175e-08
3.41762e-15
0.406816
0.525807
0.186208
-2.19476e-09
-1.90744e-09
-3.99769e-14
3.39336e-16
-1.4447e-16
-2.30096e-16
1.00937e-15
-9.25051e-13
1.68522e-11
-4.25295e-17
-1.00679e-05
-1.71438e-05
1.94884e-17
0.000254366
0.000231789
7.20558e-11
2.69327e-12
2.77327e-12
1.14702e-07
1.86436e-14
1.5251e-14
-0.00715037
-0.00703396
-6.34988e-10
-3.59567e-20
4.20798e-20
-7.93802e-10
-3.19703e-10
-3.86426e-20
-4.7126e-20
-5.83739e-20
5.28662e-10
9.25847e-14
-1.13456e-13
5.39664e-07
5.20396e-07
-6.6472e-10
-8.99575e-21
1.83339e-07
-3.71828e-09
3.12311e-08
1.15269e-13
2.92474e-13
9.19415e-14
1.00542
1.70515e-13
1.26352e-13
1.00132
1.00413
0.999742
1.00048
0.999656
0.999566
0.999887
0.999751
1.00002
1.00001
1.00005
1.00012
1.00005
1.00014
1.00003
1.00012
1.00002
1.0001
1.00002
1.0001
1.00002
1.00009
1.00002
1.0001
1.00002
1.00009
1.00002
1.00009
1.00002
1.00009
1.00002
1.00009
1.00002
1.00009
1.00002
1.00009
1.00002
1.0001
1.00002
1.00009
1.00002
1.00009
1.00002
1.00009
1.00003
1.0001
1.00003
1.0001
1.00002
1.0001
1.00002
1.00009
1.00002
1.0001
1.00002
1.00009
1.00002
1.00009
1.00002
1.00009
1.00003
1.00009
1.00003
1.00011
1.00005
1.00016
1.00012
4.31231e-16
-6.37881e-09
1.00183
-3.3129e-18
8.33113e-09
0.000425265
2.31331e-17
2.71158e-14
2.3087e-14
-1.89372e-18
-1.18538e-19
2.31324e-15
1.61631e-15
-9.54858e-13
-1.1215e-12
-5.00648e-11
1.43922e-21
-4.09002e-10
-1.83112e-09
-7.92495e-09
2.99913e-07
-2.35992e-18
-4.25046e-19
-3.19104e-19
1.3709e-21
3.15635e-07
6.57653e-07
2.994e-07
-2.00369e-18
-5.43648e-18
-4.35607e-14
3.71013e-08
1.31785e-08
2.11095e-07
3.79234e-07
1.00024
1.00034
-4.9371e-17
-4.82088e-17
0.999351
0.999766
0.998681
0.998465
1.00137
0.99963
1.00541
1.00366
1.00851
1.00963
0.998932
1.00775
0.967945
0.986887
0.907629
0.939915
0.816072
0.859079
0.700919
0.752336
0.574537
0.62759
0.45178
0.500392
0.341113
0.384883
0.246033
0.281972
0.172149
0.199258
0.116654
0.13699
0.076482
0.0904821
0.0486176
0.0581234
0.0297814
0.0361976
0.0178354
0.0217448
0.0103653
0.0127978
0.00587786
0.00733264
0.00321226
0.00403828
0.00175771
0.00220924
0.000940989
0.00119887
0.00049012
0.000624955
0.000254694
0.000327116
0.000130412
0.000168425
6.48436e-05
8.37968e-05
3.19579e-05
4.18169e-05
1.55525e-05
2.04113e-05
7.56086e-06
9.92452e-06
3.73214e-06
4.85328e-06
1.93413e-06
2.41644e-06
9.61004e-15
7.24556e-15
-1.15954e-10
-5.27087e-10
-0.005102
-0.00953992
-4.35637e-09
3.69746e-08
5.96049e-08
2.58485e-07
-5.28648e-09
1.70816e-10
-2.07807e-09
1.00991
1.0101
2.5957e-17
-1.34852e-12
1.6975e-13
1.47502e-07
1.25629e-18
-5.68644e-11
-6.22732e-09
-1.68037e-13
2.04322e-13
1.01006
1.30868e-06
4.53629e-12
3.0525e-14
2.62242e-14
-0.00202159
-5.87836e-14
-6.50682e-14
8.58382e-14
-7.21742e-13
-2.28928e-06
1.76751e-08
-2.20778e-12
4.81092e-17
-0.000346233
2.06109e-11
-5.71308e-11
3.01342e-14
-8.44479e-20
-3.10521e-06
2.52718e-16
-1.36895e-18
0.977323
0.948319
9.95461e-09
0.415639
4.51359e-07
6.73041e-07
-3.59008e-17
1.12923e-09
9.68027e-10
4.48053e-07
3.48169e-07
-6.67794e-19
-8.95504e-19
3.00412e-17
0.0315324
7.18328e-08
3.17341e-10
-3.13818e-15
3.80658e-14
-2.47666e-16
1.16138e-10
-3.1398e-18
-1.75691e-09
0.00942931
0.775518
0.856424
0.520645
1.78716e-17
0.120648
-1.32428e-09
-6.62091e-17
-3.68453e-16
3.87833e-07
5.03077e-07
5.81592e-07
0.0002895
0.000343126
-2.57187e-05
-1.27119e-05
-8.88115e-12
0.000102877
1.95982e-19
1.5827e-18
-3.94914e-06
-0.0052174
4.74878e-08
-0.00841514
-0.00933233
1.40227e-07
6.12759e-08
1.25047e-08
-2.64016e-10
-8.97243e-11
0.000301967
0.00028176
2.73911e-09
-9.87547e-06
-8.92653e-06
-1.11163e-18
-1.15101e-10
1.35301e-10
2.8678e-09
1.24928e-09
-6.16681e-12
-1.65907e-12
-3.34719e-12
-2.4872e-12
1.00845
-1.16857e-05
-1.56795e-10
1.00299
1.00708
1.00022
1.00166
0.999707
0.999761
0.999931
0.999725
1.00014
1.00006
1.00023
1.00026
1.00023
1.00032
1.00023
1.00032
1.00023
1.00031
1.00022
1.00032
1.00022
1.0003
1.00022
1.00031
1.00022
1.0003
1.00022
1.0003
1.00021
1.0003
1.00022
1.0003
1.00022
1.0003
1.00022
1.0003
1.00022
1.0003
1.00021
1.00029
1.00022
1.0003
1.00022
1.0003
1.00022
1.0003
1.00022
1.00031
1.00022
1.0003
1.00022
1.0003
1.00022
1.00031
1.00022
1.00029
1.00022
1.0003
1.00023
1.0003
1.00027
1.00029
1.0003
1.00028
1.0003
-3.6896e-10
3.68387e-08
0.203938
0.000164875
-9.76312e-14
-9.29804e-14
-1.20533e-19
-7.39577e-20
2.46787e-15
-2.07555e-06
-3.38407e-07
2.17652e-10
2.65251e-17
1.72722e-12
2.38917e-11
-3.89935e-10
1.54566e-16
1.04493e-16
1.04729e-06
-8.41982e-17
-8.33331e-17
-1.11393e-16
1.89154e-15
1.41346e-15
-2.0741e-19
-1.5079e-19
-2.66463e-11
-3.22599e-10
-2.51099e-10
9.90794e-09
4.12666e-08
6.21657e-07
5.58893e-05
1.68287e-06
1.99819e-09
-1.57559e-10
-1.25756e-08
-3.11774e-09
-1.98381e-20
-1.02166e-19
0.999637
1.00002
0.998636
0.998674
1.00028
0.999002
1.00361
1.00184
1.0091
1.00876
1.00422
1.00987
0.979778
0.99562
0.926851
0.955617
0.843119
0.882333
0.732071
0.782255
0.607475
0.660034
0.484201
0.534139
0.368677
0.414183
0.269644
0.306913
0.191123
0.219544
0.130602
0.152487
0.0855703
0.1009
0.0549148
0.0654385
0.0338952
0.0409774
0.0204335
0.0247504
0.0119977
0.0147585
0.00680824
0.00843803
0.00378307
0.00472695
0.00206934
0.00260048
0.00110744
0.00140246
0.000584524
0.000741256
0.000306984
0.000391914
0.00015598
0.000200072
7.78165e-05
0.000100535
3.84655e-05
5.00322e-05
1.89254e-05
2.45317e-05
9.50099e-06
1.2426e-05
4.60422e-06
6.10551e-06
2.1979e-06