/*--------------------------------*- C++ -*----------------------------------*\
  =========                 |
  \\      /  F ield         | OpenFOAM: The Open Source CFD Toolbox
   \\    /   O peration     | Website:  https://openfoam.org
    \\  /    A nd           | Version:  7
     \\/     M anipulation  |
\*---------------------------------------------------------------------------*/
FoamFile
{
    version     2.0;
    format      ascii;
    class       volScalarField;
    location    "1";
    object      T;
}
// * * * * * * * * * * * * * * * * * * * * * * * * * * * * * * * * * * * * * //

dimensions      [0 0 0 1 0 0 0];

internalField   nonuniform List<scalar> 
23686
(
0.509941
0.910643
0.997281
0.975489
1.00718
1.01727
1.00286
1.00909
1.00026
1.00127
0.999751
0.999405
0.999891
0.999662
0.999995
0.99997
1.00001
1.00003
1.00001
1.00002
1
1
0.999999
0.999998
1
0.999999
1
1
1
1
1
1
1
1
1
1
1
1
1
1
1
1
1
1
1
1
1
1
1
1
1
1
1
1
1
1
1
1
1
1
1
1
1
1
1
1
1
1
1
1
1
1
1
1
1
1
1
1
1
1
1
1
1
1
1
1
1
1
1
1
1
1
1
1
1
1
1
1
1
1
1
1
1
1
1
1
1
1
1
1
1
1
1
1
1
1
1
1
1
1
1
1
1
1
1
1
1
1
1
1
1
1
1
1
1
1
1
1
1
1
1
1
1
1
1
1
1
1
1
1
1
1
1
1
1
1
1
1
1
1
1
1
1
1
1
1
1
1
1
1
1
1
1
1
1
1
1
1
1
1
1
1
1
1
1
1
1
1
1
1
1
1
1
1
1
1
1
1
1
0.11164
-0.00310636
-0.000317299
5.52315e-05
-1.03085e-05
1.75243e-07
1.75516e-07
-3.22223e-08
2.01359e-09
3.75098e-10
-1.68621e-10
1.44734e-11
1.36953e-12
-8.03056e-13
9.05056e-14
5.80328e-15
-3.42344e-15
4.66649e-16
-1.89949e-17
-1.49325e-17
3.77366e-18
-1.48028e-19
-6.4433e-20
2.05395e-20
-1.96348e-21
-3.0959e-22
1.07339e-22
-1.48157e-23
-8.20782e-25
5.191e-25
-1.16305e-25
5.25506e-27
1.76537e-27
-9.38913e-28
2.39129e-28
3.1585e-29
-2.90752e-29
4.95292e-30
2.21598e-30
-2.8232e-31
-1.49286e-31
5.64283e-33
8.67039e-33
6.24834e-34
-3.46012e-34
-7.51269e-35
-1.35826e-36
1.50325e-36
2.75573e-37
-2.29162e-53
5.89076e-38
7.44939e-37
-6.23719e-35
2.39967e-33
-8.85613e-34
9.71015e-32
4.50234e-30
-7.48439e-30
-6.51247e-28
4.34938e-27
-1.56711e-25
-1.41313e-24
-1.43257e-23
-3.08777e-23
8.5386e-22
5.23975e-21
-3.77906e-20
-5.99228e-19
-5.84591e-19
4.32626e-17
2.53619e-17
-7.05891e-16
-6.27487e-15
-6.15956e-14
9.28472e-14
1.08796e-12
-4.46564e-12
-8.32407e-12
-2.94583e-11
1.16143e-10
5.74556e-10
-2.30965e-09
6.95218e-09
-3.44501e-08
8.51051e-08
6.62843e-09
-2.31836e-07
-6.63889e-07
1.95718e-06
6.47992e-06
-1.1162e-05
-0.00011365
0.000109153
0.00108014
0.00035253
-0.00734297
-0.0181832
0.0136732
0.107373
0.268713
1
1
1
1
1
1
1
1
1
1
1
1
1
1
1
1
1
1
1
1
1
1
1
1
1
1
1
1
1
1
1
1
1
1
1
1
1
1
1
1
1
1
1
1
1
1
1
1
1
1
1
1
1
1
1
1
1
1
1
1
1
1
1
1
1
1
1
1
1
1
1
1
1
1
1
1
1
1
1
1
1
1
1
1
1
1
1
1
1
1
1
1
1
1
1
1
1
1
1
1
1
1
1
1
1
1
1
1
1
1
1
1
1
1
1
1
1
1
0.999999
0.999999
0.999999
0.999999
0.999999
0.999999
1
1
1
1
1
1
1.00001
1
1.00001
1.00001
1.00001
1.00001
1.00002
1.00002
1.00002
1.00003
0.999988
1
0.999873
0.999899
0.9996
0.999664
0.999107
0.999251
0.998352
0.99859
0.997236
0.997591
0.995602
0.996128
0.993224
0.99397
0.989927
0.990926
0.985452
0.986861
0.97958
0.981406
0.972012
0.974194
0.962288
0.96504
0.949817
0.953302
0.935249
0.939545
0.918295
0.923635
0.90021
0.90632
0.880574
0.887703
0.859208
0.866949
0.83445
0.84255
0.80528
0.814116
0.771672
0.780029
0.728842
0.736323
0.677165
0.684502
0.617736
0.625531
0.545785
0.553978
0.471037
0.47598
0.379642
0.278685
0.380426
2.82422e-38
0.184588
0.0139069
-0.00200416
0.000101508
-3.29739e-06
-3.45346e-06
5.32192e-07
-1.86721e-08
-8.67423e-09
1.98581e-09
-2.29594e-10
-3.01286e-11
1.01881e-11
-1.26524e-12
-1.00732e-13
5.22206e-14
-6.12953e-15
-2.58928e-16
1.91468e-16
-4.45204e-17
2.0719e-18
1.20542e-18
-2.49972e-19
1.96929e-20
4.6625e-21
-1.62515e-21
1.52968e-22
1.42525e-23
-8.67307e-24
1.13971e-24
-2.40738e-26
-4.11798e-26
8.42341e-27
-1.16244e-27
-1.24477e-28
1.75935e-28
-3.46678e-29
-6.27199e-30
5.24157e-30
2.67299e-31
-2.73626e-31
-4.46809e-32
1.45292e-32
3.29724e-33
-2.60097e-34
-1.98944e-34
-1.89475e-35
1.9323e-36
8.13772e-37
-0.00133342
6.24257e-38
0.196544
7.93602e-37
-1.22094e-35
-1.36447e-35
-5.17925e-33
-2.3484e-32
-4.43222e-31
-1.50806e-29
1.80319e-28
6.38244e-28
5.53712e-27
6.13584e-25
4.49419e-24
2.82048e-23
-9.64986e-23
-2.85697e-21
-2.33075e-21
2.04467e-19
1.24671e-18
-9.5498e-18
-8.40455e-17
2.85962e-16
1.28728e-15
2.74102e-14
5.6564e-14
-5.31745e-13
-1.32544e-13
1.041e-11
1.82039e-12
6.99132e-11
-6.1832e-10
7.66966e-10
-9.63275e-10
1.12267e-08
-4.37867e-08
5.87811e-08
1.25679e-07
-9.58309e-07
1.60524e-06
2.81773e-06
7.04614e-06
-6.88689e-05
-7.90968e-05
0.000573483
0.0013379
-0.00253418
-0.0148692
-0.00856761
0.0625313
0.000148593
0.0642368
-2.77272e-05
0.453368
0.000140418
1.57756e-06
-1.07378e-05
1.40764e-06
-1.25929e-08
-2.71604e-08
5.36429e-09
-5.3326e-10
-1.0663e-10
2.86304e-11
-3.09298e-12
-3.83719e-13
1.51936e-13
-1.55512e-14
-1.30251e-15
5.4571e-16
-1.17125e-16
3.48254e-18
3.73169e-18
-6.75496e-19
4.37226e-20
1.4969e-20
-4.55695e-21
3.55499e-22
5.13716e-23
-2.46805e-23
2.80563e-24
1.71745e-26
-1.21951e-25
2.15246e-26
-2.90266e-27
-2.20848e-28
4.65369e-28
-1.00329e-28
-1.41159e-29
1.6235e-29
8.50075e-31
-9.60762e-31
-1.47341e-31
4.7984e-32
1.17835e-32
-6.94772e-34
-6.65432e-34
-7.30943e-35
5.94825e-36
2.59316e-36
2.51436e-37
-1.2184e-35
-7.60519e-35
-3.5377e-33
-1.1695e-32
-2.21556e-31
-6.05398e-30
2.79927e-28
2.84023e-27
2.23822e-26
4.6122e-25
2.74379e-24
1.47574e-23
-1.17809e-22
-2.11205e-21
-1.00907e-22
1.39928e-19
6.73489e-19
-6.25905e-18
-3.96395e-17
3.18706e-16
1.13409e-15
1.84218e-14
2.75324e-14
-3.53826e-13
-1.00784e-13
6.25139e-12
-2.29038e-13
5.34125e-11
-4.48227e-10
6.6238e-10
-7.04498e-10
7.08839e-09
-3.20351e-08
5.94836e-08
8.30341e-08
-8.55825e-07
1.34472e-06
3.15105e-06
5.29107e-06
-6.8942e-05
-6.62519e-05
0.000592747
0.00124955
-0.00290919
-0.0147871
-0.00622815
0.0655703
7.32302e-37
-1.13217e-07
5.32847e-07
-8.58979e-08
3.92802e-09
1.22829e-09
-4.57859e-10
3.2832e-11
4.88649e-12
-2.1794e-12
2.26184e-13
2.23011e-14
-9.29589e-15
1.0914e-15
-2.83741e-17
-4.48132e-17
9.80784e-18
-2.24186e-19
-2.01381e-19
5.3489e-20
-4.00649e-21
-1.03642e-21
3.00494e-22
-3.3441e-23
-3.41954e-24
1.49541e-24
-2.75551e-25
5.21049e-27
4.90226e-27
-2.37177e-27
6.43517e-28
6.24981e-29
-7.86815e-29
1.53555e-29
7.11052e-30
-1.07562e-30
-4.95095e-31
1.20025e-32
3.02171e-32
2.35404e-33
-1.01689e-33
-2.73238e-34
-7.12811e-36
5.08432e-36
9.79157e-37
-2.11015e-35
1.94873e-33
-4.06156e-33
6.95845e-32
2.41161e-30
-3.64836e-29
-1.07347e-27
-4.06341e-27
-1.46697e-25
-9.26361e-25
-8.97793e-24
-1.85713e-24
7.3523e-22
3.55683e-21
-2.97545e-20
-4.00176e-19
-1.00541e-19
2.55039e-17
-3.97032e-17
-7.07806e-16
-4.63545e-15
-3.8149e-14
8.70807e-14
7.3587e-13
-2.94139e-12
-4.26549e-12
-2.28498e-11
8.21562e-11
3.44709e-10
-1.80121e-09
6.3673e-09
-2.85755e-08
6.48213e-08
2.89741e-08
-2.57097e-07
-5.43183e-07
2.06218e-06
6.3422e-06
-1.54102e-05
-0.000108539
0.000138177
0.00108662
0.000149764
-0.0079021
-0.0170402
0.0196214
0.112589
-0.00528114
-0.00556021
-3.09419e-37
0.594883
-0.00160947
0.942444
1.00339
0.979133
1.00791
1.01325
1.00265
1.00761
0.999944
1.00096
0.999656
0.999356
0.999885
0.999649
1
0.999959
1.00002
1.00003
1.00001
1.00002
1
1
0.999999
0.999998
1
0.999999
1
1
1
1
1
1
1
1
1
1
1
1
1
1
1
1
1
1
1
1
1
1
1
1
1
1
1
1
1
1
1
1
1
1
1
1
1
1
1
1
1
1
1
1
1
1
1
1
1
1
1
1
1
1
1
1
1
1
1
1
1
1
1
1
1
1
1
1
1
1
1
1
1
1
1
1
1
1
1
1
1
1
1
1
1
1
1
1
1
1
1
1
1
1
1
1
1
1
1
1
1
1
1
1
1
1
1
1
1
1
1
1
1
1
1
1
1
1
1
1
1
1
1
1
1
1
1
1
1
1
1
1
1
1
1
1
1
1
1
1
1
1
1
1
1
1
1
1
1
1
1
1
1
1
1
1
1
1
1
1
1
1
1
1
1
1
1
1
1
-2.53363e-36
0.00261077
0.000236229
0.235597
-1.05639e-05
-3.43467e-06
7.57138e-07
-5.52954e-08
-7.56084e-09
3.24048e-09
-3.78286e-10
-2.40992e-11
1.56869e-11
-2.161e-12
-8.04911e-14
7.115e-14
-1.06668e-14
4.16071e-16
2.82509e-16
-7.50395e-17
4.60074e-18
1.38859e-18
-4.09636e-19
4.29022e-20
4.87992e-21
-2.28915e-21
3.00978e-22
9.58408e-24
-1.14017e-23
2.17161e-24
-1.22833e-25
-3.84129e-26
1.44812e-26
-3.45995e-27
-1.23942e-28
3.55703e-28
-8.44535e-29
-1.87601e-29
9.84857e-30
1.45468e-30
-5.23889e-31
-1.54175e-31
1.32907e-32
9.12524e-33
7.65371e-34
-2.06906e-34
-4.39245e-35
-7.84719e-37
1.23368e-36
-1.86958e-35
-0.00445074
-0.00527208
-0.00421271
1.07393e-37
0.245763
0.325994
-1.31586e-05
-1.12008e-05
0.517419
2.03892e-33
-4.55757e-33
8.69128e-32
2.35752e-30
-1.83043e-29
-1.17998e-27
-4.24155e-27
-1.41842e-25
-1.19606e-24
-1.17414e-23
-2.34463e-23
7.3714e-22
5.79327e-21
-2.23315e-20
-5.46322e-19
-1.28482e-18
3.27551e-17
2.59143e-17
-9.13217e-16
-4.54945e-15
-5.98556e-14
4.57734e-14
1.19993e-12
-3.18959e-12
-1.08315e-11
-2.51637e-11
2.53213e-11
8.00345e-10
-2.71931e-09
9.69898e-09
-4.67549e-08
1.15006e-07
2.18113e-08
-5.09599e-07
-1.34759e-07
2.44961e-06
7.93145e-06
-3.30321e-05
-0.000122267
0.000303268
0.00136795
-0.000799219
-0.0116239
-0.0168536
0.042871
0.139363
0.208451
0.0528654
0.185682
0.025489
7.61732e-05
0.000473589
6.62957e-05
7.89362e-06
1
1
1
1
1
1
1
1
1
1
1
1
1
1
1
1
1
1
1
1
1
1
1
1
1
1
1
1
1
1
1
1
1
1
1
1
1
1
1
1
1
1
1
1
1
1
1
1
1
1
1
1
1
1
1
1
1
1
1
1
1
1
1
1
1
1
1
1
1
1
1
1
1
1
1
1
1
1
1
1
1
1
1
1
1
1
1
1
1
1
1
1
1
1
1
1
1
1
1
1
1
1
1
1
1
1
1
1
1
1
1
1
1
1
1
1
0.999999
0.999999
0.999999
0.999999
1
0.999999
1
1
1
1
1
1
1
1
1.00001
1.00001
1.00002
1.00001
1.00003
1.00003
1.00003
1.00004
0.999984
1.00002
0.999845
0.999925
0.999542
0.999698
0.999059
0.999315
0.99833
0.998735
0.997216
0.997806
0.995582
0.99642
0.993194
0.994401
0.989826
0.991475
0.985387
0.987499
0.979587
0.982442
0.971669
0.975296
0.961594
0.965915
0.949098
0.954522
0.934833
0.940964
0.918912
0.926249
0.901783
0.909901
0.883459
0.892583
0.862512
0.872821
0.83631
0.848011
0.805467
0.818068
0.768513
0.783276
0.716887
0.733481
0.657154
0.673455
0.594082
0.609972
0.52234
0.5458
0.759785
8.95945e-37
-0.000422185
0.806072
-1.66676e-36
0.000213928
-1.78754e-35
6.14728e-37
6.51626e-07
1.63027e-07
-4.58153e-08
4.84777e-09
4.09135e-10
-2.17895e-10
2.77077e-11
1.32196e-12
-1.08696e-12
1.45737e-13
3.00489e-15
-4.18004e-15
9.06022e-16
-5.1419e-17
-2.18129e-17
5.59764e-18
-4.3185e-19
-8.34001e-20
3.24363e-20
-3.69271e-21
-2.63871e-22
1.68244e-22
-2.56592e-23
2.2702e-25
7.68202e-25
-1.80865e-25
1.92881e-26
9.92544e-28
-2.0879e-27
5.26169e-28
4.63514e-29
-6.77764e-29
6.94317e-30
5.06404e-30
-1.79951e-31
-3.80876e-31
-2.53758e-32
1.5413e-32
3.58519e-33
-1.2198e-34
-1.16376e-34
-1.08774e-35
1.7877e-36
-3.2623e-35
-2.0881e-07
1.14753e-34
-5.94483e-33
-6.14246e-33
-4.75639e-32
-1.23657e-29
2.25067e-28
3.52387e-27
1.12686e-26
5.5431e-25
2.956e-24
2.41078e-23
-5.6684e-23
-2.56672e-21
-5.3458e-21
1.54491e-19
1.03896e-18
-4.94691e-18
-7.39239e-17
2.98869e-16
1.20653e-15
2.18143e-14
7.47076e-14
-3.86574e-13
-9.27933e-13
9.66685e-12
1.48555e-12
8.91143e-11
-6.00722e-10
3.5116e-10
9.36294e-10
2.87962e-09
-1.9528e-08
4.37703e-08
7.32864e-08
-1.09938e-06
2.32356e-06
4.20568e-06
1.87123e-06
-0.000102683
-1.66049e-05
0.000891773
0.00119361
-0.00520488
-0.0186886
0.0037924
0.108602
1.61869e-06
-3.69776e-12
-1.55329e-35
3.80224e-11
0.437398
-2.75324e-05
-1.26064e-10
0.0389578
-0.0178878
-0.0107748
-0.000326761
0.00133878
0.000239316
-0.000126731
-2.55838e-05
8.09917e-06
2.42474e-06
-3.96074e-07
-4.15346e-07
3.81361e-08
9.09566e-08
-3.92782e-08
8.83848e-09
-2.42083e-09
5.41812e-10
7.29463e-11
-2.79718e-11
-6.48058e-12
-3.25132e-12
9.82791e-13
8.57142e-14
-5.11558e-14
-5.27165e-15
-9.49977e-16
-4.29382e-17
2.97556e-17
-3.69444e-19
-4.75915e-19
-3.30748e-20
4.86016e-21
8.54248e-22
-3.46255e-24
-1.06835e-23
-1.05107e-24
-1.87881e-25
-7.44741e-27
-1.43e-27
-3.86265e-29
2.87471e-30
7.11222e-32
3.36055e-36
-4.8942e-36
-1.33903e-34
-4.6157e-34
2.94281e-33
2.35521e-32
2.06296e-32
-4.65059e-31
-1.14253e-30
4.60831e-30
2.29514e-29
-6.02536e-29
-1.60343e-28
8.43311e-28
-8.22867e-28
-6.10995e-27
3.24972e-26
-1.34898e-25
7.94927e-26
3.95411e-24
-3.03429e-23
8.18108e-23
4.30119e-22
-5.64252e-21
2.15402e-20
4.90324e-20
-9.16643e-19
4.62102e-18
1.58739e-20
-1.53549e-16
8.68353e-16
-6.22018e-16
-1.79555e-14
1.8342e-13
-5.72659e-13
0.107777
7.8914e-05
-0.0180133
-0.00437678
0.0013283
0.000802296
-4.79893e-05
-9.36986e-05
4.61313e-06
4.06217e-06
1.86313e-06
-1.05877e-06
8.73707e-08
5.94633e-08
-2.96272e-08
5.92854e-09
-1.3997e-10
6.40947e-10
-5.65445e-10
7.53846e-11
1.86716e-13
7.70997e-12
-3.83032e-13
-4.13899e-13
4.25898e-14
2.24045e-14
1.36876e-15
3.95866e-16
-4.94952e-17
-6.69641e-18
7.99583e-19
1.64653e-19
-1.95679e-21
-2.66311e-21
-1.23229e-22
1.75882e-23
2.80929e-24
5.64604e-25
2.90885e-26
4.18585e-27
3.11842e-28
-3.68783e-35
3.34181e-36
-3.73291e-35
-3.06291e-34
3.21414e-35
1.07631e-32
3.63573e-32
-1.0299e-31
-9.84149e-31
6.55923e-32
1.39322e-29
9.11172e-30
-1.64165e-28
1.75872e-28
9.69355e-28
-4.9922e-27
5.88511e-27
2.05506e-26
-3.67512e-25
2.17844e-24
-3.87387e-24
-4.19541e-23
4.21471e-22
-1.3345e-21
-4.81721e-21
7.64816e-20
-2.98947e-19
-2.87442e-19
1.18166e-17
-6.81322e-17
8.11521e-18
1.81334e-15
-1.13034e-14
3.26878e-14
2.27851e-13
-2.81782e-12
8.26066e-12
4.07321e-11
-5.316e-10
1.9919e-09
6.03971e-09
-1.04476e-07
5.89488e-07
7.83204e-09
-3.02927e-08
-3.21944e-08
-5.64741e-10
-7.18396e-33
2.44187e-33
-4.72153e-33
-9.53785e-33
-1.36584e-31
-8.65912e-30
0.000277452
0.982244
1.00991
1.00371
1.00638
1.01397
1.00125
1.00491
0.999712
1.00021
0.999713
0.999455
0.999923
0.999743
1.00001
0.999978
1.00002
1.00003
1
1.00001
0.999999
1
0.999999
0.999998
1
0.999999
1
1
1
1
1
1
1
1
1
1
1
1
1
1
1
1
1
1
1
1
1
1
1
1
1
1
1
1
1
1
1
1
1
1
1
1
1
1
1
1
1
1
1
1
1
1
1
1
1
1
1
1
1
1
1
1
1
1
1
1
1
1
1
1
1
1
1
1
1
1
1
1
1
1
1
1
1
1
1
1
1
1
1
1
1
1
1
1
1
1
1
1
1
1
1
1
1
1
1
1
1
1
1
1
1
1
1
1
1
1
1
1
1
1
1
1
1
1
1
1
1
1
1
1
1
1
1
1
1
1
1
1
1
1
1
1
1
1
1
1
1
1
1
1
1
1
1
1
1
1
1
1
1
1
1
1
1
1
1
1
1
1
1
1
1
-1.19006e-29
-1.11632e-05
3.27835e-13
-7.24427e-33
0.469698
1.42477e-11
-3.23756e-09
2.78352e-09
1.07784e-06
6.55844e-08
-4.30315e-08
-2.53936e-08
5.86964e-09
8.24713e-09
7.47404e-09
0.0698066
0.368259
-1.9338e-10
-8.49958e-11
-1.93338e-35
3.38049e-11
3.91351e-11
0.158723
-2.28108e-12
4.52074e-14
5.51271e-14
-1.30451e-14
9.19247e-16
2.337e-16
-7.67688e-17
7.85798e-18
8.17538e-19
-4.35804e-19
5.5129e-20
1.75639e-21
-2.1151e-21
3.6787e-22
-1.19503e-23
-9.35875e-24
2.45208e-24
-2.64588e-25
-9.29916e-27
1.72507e-26
-5.51875e-27
1.08725e-28
4.75015e-28
-1.33933e-28
-3.09707e-29
1.20556e-29
3.1683e-30
-4.31249e-31
-2.30101e-31
-9.40091e-33
8.66156e-33
1.39577e-33
-9.06124e-35
-5.34795e-35
-1.66997e-05
-2.49828e-05
9.83479e-32
2.58099e-33
2.29364e-33
-5.82681e-33
9.19947e-32
6.56089e-32
1.88815e-30
2.62579e-30
-9.42028e-30
1.64272e-34
2.77034e-33
2.98715e-28
5.8029e-27
2.65084e-26
6.16618e-25
2.57165e-24
2.28156e-23
-7.24606e-23
-2.99198e-21
-7.36308e-21
1.48293e-19
1.09069e-18
-4.03299e-18
-7.17437e-17
3.78685e-16
1.67035e-15
2.29858e-14
8.39609e-14
-4.01641e-13
-1.42706e-12
9.93158e-12
3.65206e-12
1.10035e-10
-6.22384e-10
6.56758e-11
2.4283e-09
-3.3293e-09
7.67277e-10
2.45023e-08
3.12153e-08
-1.16377e-06
2.87667e-06
5.49072e-06
-3.03965e-06
-0.000126186
4.37375e-05
0.00113995
0.000959612
-0.00734601
-0.0211853
0.0156809
0.0585172
-1.62993e-06
-7.78345e-06
1.07711e-06
1
1
1
1
1
1
1
1
1
1
1
1
1
1
1
1
1
1
1
1
1
1
1
1
1
1
1
1
1
1
1
1
1
1
1
1
1
1
1
1
1
1
1
1
1
1
1
1
1
1
1
1
1
1
1
1
1
1
1
1
1
1
1
1
1
1
1
1
1
1
1
1
1
1
1
1
1
1
1
1
1
1
1
1
1
1
1
1
1
1
1
1
1
1
1
1
1
1
1
1
1
1
1
1
1
1
1
1
1
1
1
1
1
1
0.999999
1
0.999999
0.999999
1
1
1
1
1
1
1
1
1
1
1.00001
1.00001
1.00002
1.00002
1.00003
1.00003
1.00003
1.00004
0.999988
1.00002
0.99985
0.999933
0.999571
0.999729
0.999143
0.999378
0.998492
0.998872
0.997478
0.998042
0.995942
0.996769
0.993687
0.994857
0.990527
0.992139
0.98634
0.98844
0.980792
0.98354
0.973085
0.976664
0.963026
0.967392
0.950835
0.956145
0.937395
0.943287
0.922701
0.929702
0.907116
0.914883
0.889869
0.898458
0.869156
0.879339
0.842386
0.854199
0.810271
0.823766
0.770452
0.785801
0.713182
0.731418
0.646854
0.665233
0.575601
0.590744
3.09839e-05
-1.13942e-05
0.251505
-0.00459306
-4.40635e-10
-5.18254e-10
-0.000867393
7.78045e-05
0.337505
-5.23749e-36
0.572277
-1.89847e-35
6.84352e-32
0.872928
0.451396
1.42844e-09
9.19173e-11
6.45133e-07
-8.21647e-08
-8.16701e-33
1.50348e-06
5.74375e-11
0.22729
-1.28837e-14
-8.77943e-13
1.70705e-13
-8.67777e-15
-3.56019e-15
9.99668e-16
-9.07226e-17
-1.42498e-17
5.75102e-18
-6.929e-19
-5.03144e-20
2.92617e-20
-4.57204e-21
-1.79931e-23
1.42507e-22
-3.07786e-23
2.08011e-24
5.0684e-25
-1.80228e-25
3.7054e-26
-1.81659e-27
-2.49264e-27
8.3758e-28
2.35606e-29
-9.88992e-29
5.48385e-30
8.07076e-30
4.72832e-31
-4.39695e-31
-7.88407e-32
9.24318e-33
4.28058e-33
2.11906e-34
-1.01108e-34
6.53328e-12
-6.31802e-36
0.141515
0.0179633
-0.003371
-4.29475e-33
-1.15616e-32
-5.95385e-36
0.921152
-1.65419e-27
-1.49134e-27
-2.15662e-29
6.0859e-27
-3.99173e-29
-1.10409e-26
-1.81636e-25
-1.16763e-24
-1.17844e-23
-1.81526e-23
7.79603e-22
6.2806e-21
-2.21643e-20
-5.17107e-19
-1.38172e-18
2.98986e-17
1.24715e-17
-1.18441e-15
-4.65304e-15
-6.35537e-14
2.0224e-14
1.25398e-12
-2.43568e-12
-1.30905e-11
-2.48687e-11
-1.90245e-11
1.00641e-09
-3.08583e-09
1.10036e-08
-5.3831e-08
1.32721e-07
4.31115e-08
-7.43972e-07
3.45024e-07
2.75522e-06
9.01738e-06
-5.07234e-05
-0.000120819
0.000469628
0.00153296
-0.00189631
-0.0147779
-0.0141554
0.000195338
-1.20069e-26
0.504144
0.0738136
0.000138865
0.00852237
-0.0208998
-0.00637388
0.00120957
0.00105054
-5.26141e-06
-0.000118183
1.49916e-06
5.25978e-06
2.42189e-06
-1.17974e-06
6.40819e-08
4.93103e-08
-1.54235e-08
1.07676e-09
1.06622e-09
4.93897e-10
-6.00128e-10
1.00013e-10
8.90889e-13
8.36582e-12
-7.97846e-13
-4.53456e-13
5.34707e-14
2.31936e-14
1.73371e-15
4.75113e-16
-5.06794e-17
-6.3428e-18
9.21823e-19
1.59275e-19
-3.88597e-21
-1.3808e-34
-7.77763e-35
4.49331e-33
1.91089e-32
-5.42193e-32
-6.39967e-31
-5.85219e-31
9.28842e-30
2.54973e-29
-1.01276e-28
-2.39173e-28
1.18035e-27
-7.4134e-28
-1.04207e-26
4.3772e-26
-8.78803e-26
-2.21734e-25
5.01492e-24
-2.95791e-23
4.41867e-23
6.16186e-22
-5.63413e-21
1.64969e-20
7.25565e-20
-1.05832e-18
3.94913e-18
6.77029e-18
-1.71093e-16
8.42106e-16
-3.14729e-18
-2.72054e-14
-1.09124e-07
-6.80647e-10
-0.0166369
-0.013716
-0.00130434
0.00154049
0.000386423
-0.00013364
-4.16054e-05
9.54457e-06
2.79693e-06
-2.92007e-08
-6.19529e-07
5.47956e-08
1.11419e-07
-4.75969e-08
1.04908e-08
-2.88818e-09
7.55808e-10
3.94426e-11
-2.85065e-11
-8.15487e-12
-2.89324e-12
1.0598e-12
7.28712e-14
-5.54276e-14
-5.33287e-15
-1.15869e-15
-5.3063e-17
2.9493e-17
-4.6207e-19
-4.74563e-19
-2.94902e-20
-0.00678227
-0.0031757
-0.00995505
5.49492e-21
8.98015e-22
-1.07789e-24
-1.03984e-23
-1.02022e-24
-2.21414e-25
-2.07263e-34
9.91265e-34
1.16216e-32
1.12838e-32
-2.49374e-31
-1.02458e-30
2.27171e-30
1.99075e-29
-3.34013e-30
-2.43347e-28
2.40701e-28
1.52328e-27
-6.51156e-27
3.92637e-27
5.79613e-26
-4.13277e-25
1.92718e-24
-8.28535e-25
-5.66847e-23
3.98139e-22
-9.83287e-22
-6.87804e-21
7.37934e-20
-2.84052e-19
-7.81658e-19
1.30698e-17
-5.8141e-17
-4.37178e-17
2.08497e-15
-1.163e-14
7.87485e-15
2.89892e-13
-2.47506e-12
-2.40657e-35
0.64697
-3.31695e-35
3.93953e-07
-1.16855e-07
-2.38212e-35
1.64759e-13
-3.2655e-13
-3.84306e-12
-6.04518e-35
3.88616e-35
-2.98606e-21
-1.37077e-22
1.60441e-23
2.60732e-24
3.57393e-28
6.27662e-25
4.05435e-26
0.00045649
-8.04472e-08
0.0295361
-3.25543e-21
1.00293
1.00828
1.01211
1.00307
1.00796
1.00022
1.00185
0.999626
0.999683
0.999808
0.999572
0.999981
0.999882
1.00002
1.00002
1.00001
1.00003
1
1.00001
0.999999
0.999999
0.999999
0.999998
1
0.999999
1
1
1
1
1
1
1
1
1
1
1
1
1
1
1
1
1
1
1
1
1
1
1
1
1
1
1
1
1
1
1
1
1
1
1
1
1
1
1
1
1
1
1
1
1
1
1
1
1
1
1
1
1
1
1
1
1
1
1
1
1
1
1
1
1
1
1
1
1
1
1
1
1
1
1
1
1
1
1
1
1
1
1
1
1
1
1
1
1
1
1
1
1
1
1
1
1
1
1
1
1
1
1
1
1
1
1
1
1
1
1
1
1
1
1
1
1
1
1
1
1
1
1
1
1
1
1
1
1
1
1
1
1
1
1
1
1
1
1
1
1
1
1
1
1
1
1
1
1
1
1
1
1
1
1
1
1
1
1
0.69948
1
-2.12193e-35
0.113514
1.33042e-36
0.388925
0.228572
5.73605e-09
-1.50644e-10
5.09911e-07
-2.28502e-08
1.03329e-31
-4.40342e-10
-4.58045e-10
1.22949e-06
1.81553e-06
1.39007e-06
-4.19062e-35
9.17738e-12
-2.12957e-12
3.98611e-09
2.7054e-07
-1.14256e-07
1.76609e-13
-1.49882e-14
-2.0572e-15
8.95251e-16
-1.10754e-16
-5.92245e-18
4.90096e-18
-7.53595e-19
1.47345e-21
2.33494e-20
-4.6806e-21
2.59906e-22
1.01198e-22
-2.8958e-23
3.43179e-24
1.34598e-25
-1.52679e-25
5.1949e-26
-5.56909e-27
-2.49256e-27
1.24759e-27
9.68247e-30
-1.38964e-28
-2.98735e-30
1.01043e-29
1.32311e-30
-3.39882e-31
-1.09112e-31
7.80674e-34
3.74544e-33
3.05879e-11
3.00202e-11
0.194709
-0.00734108
2.42589e-33
7.15432e-25
0.287252
-1.7492e-29
7.363e-27
-0.000126951
4.79856e-34
4.11233e-26
-2.17759e-25
-2.45736e-25
6.97521e-25
2.2312e-24
2.11992e-23
-8.58456e-23
7.69474e-22
8.92354e-22
-3.01577e-21
6.41478e-35
1.97562e-35
-9.37255e-21
1.48914e-19
1.15912e-18
-3.79051e-18
-6.9639e-17
4.57408e-16
2.31404e-15
2.29163e-14
9.67643e-14
-4.12601e-13
-1.89336e-12
9.93792e-12
6.02417e-12
1.35294e-10
-6.04939e-10
-2.71362e-10
4.31255e-09
-1.14751e-08
2.45855e-08
4.35636e-09
-4.82784e-08
-1.12362e-06
3.44947e-06
7.1087e-06
-1.09723e-05
-0.000150252
0.00012933
0.00142072
0.000527092
-0.0100476
-0.0228665
1.35565e-32
8.11799e-32
-1.57655e-26
-1.60362e-26
4.86889e-26
1
0.463776
1
1
1
1
1
1
1
1
1
1
1
1
1
1
1
1
1
1
1
1
1
1
1
1
1
1
1
1
1
1
1
1
1
1
1
1
1
1
1
1
1
1
1
1
1
1
1
1
1
1
1
1
1
1
1
1
1
1
1
1
1
1
1
1
1
1
1
1
1
1
1
1
1
1
1
1
1
1
1
1
1
1
1
1
1
1
1
1
1
1
1
1
1
1
1
1
1
1
1
1
1
1
1
1
1
1
1
1
1
1
1
1
1
1
1
1
1
1
1
1
1
1
1
1
1.00001
1.00001
1.00002
1.00002
1.00004
1.00003
1.00004
1.00005
0.999993
1.00003
0.999863
0.999944
0.999623
0.999765
0.999249
0.999473
0.998675
0.999024
0.997759
0.99828
0.99633
0.99713
0.994224
0.995339
0.991319
0.992866
0.987369
0.989437
0.981951
0.984646
0.974478
0.977891
0.964519
0.969054
0.952879
0.958027
0.940445
0.946369
0.926938
0.933855
0.912839
0.920394
0.896317
0.905338
0.875328
0.885837
0.84825
0.860338
0.81519
0.829311
0.771077
0.78739
0.707791
0.726825
0.636488
0.658833
0.55254
0.575262
0.000126296
0.000292128
0.000347145
0.000322973
0.756643
6.94858e-21
-5.85864e-21
-1.15685e-32
8.38872e-33
-1.85901e-10
-7.56028e-10
0.094554
0.0798409
0.176028
-0.00960126
0.0208282
-9.12843e-33
-1.62e-32
-1.57529e-27
6.91301e-27
2.69565e-34
2.01268e-34
2.86267e-33
1.80465e-13
3.62399e-13
-0.00272339
-0.00153449
-7.51242e-33
3.67458e-34
-3.19586e-35
1.64691e-30
3.09662e-31
2.84173e-31
0.378201
-5.78561e-11
1.39308e-11
3.84054e-24
-2.9432e-23
-1.82289e-05
0.512035
2.00754e-09
9.58091e-21
-1.32631e-21
1.26142e-09
9.46367e-09
2.45708e-12
-1.47914e-12
-9.15625e-19
-3.33187e-19
-0.0140318
1.16545e-17
9.34749e-18
-3.9272e-12
-5.3111e-13
3.84609e-14
-1.21863e-14
1.34319e-15
1.22703e-16
-6.60873e-17
1.2369e-17
3.20336e-19
-1.61763e-19
5.92234e-20
-7.92583e-21
-1.53601e-21
3.76464e-22
-6.03832e-23
-5.27282e-24
2.12946e-24
-3.80374e-25
3.28026e-26
1.60896e-26
-7.09142e-27
7.10673e-28
6.00808e-28
-1.71938e-28
-5.45513e-29
1.24691e-29
4.68324e-30
-3.5442e-32
-2.52078e-31
-2.78879e-32
5.16315e-33
5.2181e-11
1.66679e-33
0.274007
-1.59715e-16
-9.58172e-12
-1.47572e-11
3.0879e-14
1.50364e-13
6.44496e-16
1.07211e-15
0.45773
0.935175
-1.22177e-29
-1.01913e-29
-3.29091e-29
-0.00740284
5.97709e-09
0.96961
5.90592e-21
1.63159e-33
0.80381
3.01977e-28
-1.16244e-24
-1.02977e-23
-1.36252e-23
-2.48833e-20
-1.53262e-20
0.0569193
1.60222e-19
0.202537
-5.11947e-19
-1.37438e-18
2.76068e-17
5.23167e-18
-1.36962e-15
-4.548e-15
-6.89356e-14
2.68855e-15
1.21722e-12
-1.61725e-12
1.79962e-12
-2.44617e-11
-7.63924e-11
1.27632e-09
-3.17963e-09
1.13119e-08
-5.85732e-08
1.46332e-07
6.64313e-08
-9.88665e-07
9.34843e-07
3.21353e-06
9.12587e-06
-7.27187e-05
-0.000107879
0.000670932
0.00163438
-0.00342245
-0.0180665
7.80514e-10
-7.70529e-06
-2.00856e-05
-3.86177e-06
1.98314e-30
7.04991e-05
3.362e-06
0.266977
-0.0229725
-0.00895869
0.000870619
0.00133679
7.54261e-05
-0.000144399
-5.68232e-06
6.88644e-06
3.00961e-06
-1.20663e-06
-6.20916e-09
3.63831e-08
2.72237e-09
-6.13635e-09
2.7952e-09
2.12687e-10
-6.20563e-10
8.60382e-12
-1.20944e-12
8.33873e-33
-1.3792e-32
-3.0917e-31
-5.23854e-31
3.47357e-22
4.67061e-30
2.31294e-29
-3.21648e-29
-3.22034e-28
3.08569e-28
2.44099e-27
-7.27008e-27
-1.17247e-27
9.83351e-26
-4.2474e-25
1.20766e-24
-0.0170297
-0.0026142
0.0016967
0.000568817
-0.000129361
-6.24656e-05
1.03419e-05
3.28043e-06
4.44107e-07
-8.54607e-07
7.61534e-08
1.28143e-07
-5.43637e-08
1.15317e-08
-3.15939e-09
1.00302e-09
-1.35348e-11
-0.000567361
-0.00980062
-2.89078e-11
-2.39401e-12
1.0986e-12
5.68573e-14
-5.93988e-14
-5.09445e-15
-1.32943e-15
-4.25824e-17
-5.95086e-17
2.77127e-17
-5.40747e-19
-8.69895e-24
3.43203e-28
-9.16568e-25
4.51158e-33
8.70543e-33
-1.01863e-31
-5.66639e-31
7.35043e-31
1.31084e-29
1.86976e-29
-1.61022e-28
-3.03706e-28
1.61591e-27
1.59439e-29
-1.39025e-26
5.02257e-26
-1.78897e-26
-5.30722e-25
5.14995e-24
-1.10832e-16
2.11045e-15
-5.75799e-18
-4.77497e-21
-2.27637e-23
-1.86838e-12
9.33169e-20
-9.3321e-15
3.00916e-18
-6.06813e-15
-2.72554e-14
-1.04383e-18
6.68133e-20
-3.35215e-22
7.30089e-22
2.79877e-24
-4.25461e-13
6.49577e-14
2.32397e-14
2.10884e-15
5.36893e-16
-5.0167e-17
8.60844e-19
-1.28252e-22
1.46841e-23
1.84982e-24
-1.70801e-27
4.19802e-24
-4.70081e-19
1.21972e-10
-2.2925e-05
-2.7067e-12
0.000244632
1.00755
1.00503
1.00848
1.00124
1.00397
0.999701
1.00032
0.999651
0.999415
0.999889
0.999679
1.00001
0.99995
1.00002
1.00003
1.00001
1.00002
1
1
0.999999
0.999998
0.999999
0.999999
1
1
1
1
1
1
1
1
1
1
1
1
1
1
1
1
1
1
1
1
1
1
1
1
1
1
1
1
1
1
1
1
1
1
1
1
1
1
1
1
1
1
1
1
1
1
1
1
1
1
1
1
1
1
1
1
1
1
1
1
1
1
1
1
1
1
1
1
1
1
1
1
1
1
1
1
1
1
1
1
1
1
1
1
1
1
1
1
1
1
1
1
1
1
1
1
1
1
1
1
1
1
1
1
1
1
1
1
1
1
1
1
1
1
1
1
1
1
1
1
1
1
1
1
1
1
1
1
1
1
1
1
1
1
1
1
1
1
1
1
1
1
1
1
1
1
1
1
1
1
1
1
1
1
1
1
-2.27383e-19
-3.92477e-10
5.08816e-31
-2.8968e-13
-3.73167e-32
2.16648e-35
-6.0406e-24
-2.35987e-23
-3.18978e-08
7.75933e-21
-4.1131e-23
-5.70091e-23
5.39707e-20
3.20723e-22
-1.73874e-14
1.37575e-13
2.26177e-13
3.31244e-13
-2.85831e-19
1.41997e-15
3.4531e-18
1.38534e-18
1.54715e-14
9.52052e-14
-1.87946e-14
9.27822e-18
1.01168e-17
-3.09885e-18
-6.4827e-16
1.77158e-15
-1.6179e-11
1.62664e-18
1.46736e-18
1.44836e-17
4.17916e-12
-1.76228e-12
3.57411e-20
-6.78567e-20
9.82189e-20
-6.96728e-19
-7.01983e-19
-0.00316321
-4.2735e-21
9.64979e-30
4.45812e-23
2.3316e-22
-3.86312e-23
-3.59733e-13
-0.0214328
3.99532e-24
-2.90347e-25
-1.04042e-25
5.81797e-26
-1.02775e-26
-2.20862e-27
1.79588e-27
9.13385e-29
-1.87569e-28
-1.73322e-29
7.90827e-30
1.84941e-29
4.10832e-22
7.10441e-22
2.1361e-30
-1.96335e-31
-1.10629e-31
-1.15493e-31
-7.6259e-11
0.568575
0.243387
0.327163
-8.51052e-13
-2.35507e-11
-1.50187e-27
1.39984e-17
-0.00767335
-1.16182e-24
-1.43788e-08
-0.023337
-0.00849564
-1.21758e-32
-4.9192e-19
1.98442e-33
2.80104e-28
-1.55022e-27
1.97337e-23
1.18851e-23
-8.93716e-21
0.0253249
1.44755e-19
1.53721e-19
-4.41768e-19
-8.74423e-24
1.21434e-23
-4.26854e-21
-8.85289e-21
-1.48753e-18
-5.26036e-18
1.06504e-18
-6.02962e-19
-6.98109e-17
-6.42467e-17
-1.57804e-15
-4.98399e-15
-7.15696e-14
-2.02099e-14
-4.09991e-13
-6.80807e-33
-1.41272e-34
-2.24213e-12
-1.91274e-12
8.02872e-12
-2.65147e-11
-1.90149e-12
-4.33534e-12
-1.43087e-12
9.47722e-12
-1.09333e-11
-1.58293e-10
1.53123e-09
-3.20043e-09
1.08322e-08
-6.04383e-08
1.51304e-07
9.41717e-08
-1.26974e-06
1.62947e-06
3.85518e-06
8.15684e-06
-0.000100873
-7.66172e-05
0.000923499
0.0016438
-0.0054152
-0.0132215
-0.0204295
5.09085e-09
-8.96843e-08
1
1
1
1
1
1
1
1
1
1
1
1
1
1
1
1
1
1
1
1
1
1
1
1
1
1
1
1
1
1
1
1
1
1
1
1
1
1
1
1
1
1
1
1
1
1
1
1
1
1
1
1
1
1
1
1
1
1
1
1
1
1
1
1
1
1
1
1
1
1
1
1
1
1
1
1
1
1
1
1
1
1
1
1
1
1
1
1
1
1
1
1
1
1
1
1
1
1
1
1
1
1
1
1
1
1
1
1
1
1
1
1
1
1
1
1
1
1
0.999999
1
0.999999
1
1
1.00001
1
1.00002
1.00002
1.00004
1.00003
1.00004
1.00004
0.999997
1.00003
0.999886
0.999962
0.999686
0.999814
0.99937
0.999582
0.99887
0.999183
0.998041
0.99853
0.996742
0.997485
0.994813
0.99593
0.992166
0.993627
0.988556
0.990501
0.983228
0.985976
0.975811
0.979156
0.966391
0.970977
0.955444
0.960664
0.944248
0.950172
0.93225
0.938857
0.919566
0.927143
0.903573
0.912481
0.882518
0.893736
0.854134
0.866416
0.820432
0.834584
0.771084
0.790484
0.699642
0.722275
0.627691
0.649915
0.541726
0.572177
-1.17372e-20
-1.91031e-20
2.42576e-11
1.84423e-11
3.25089e-32
1.20368e-09
4.45597e-09
9.37411e-11
1.4304e-31
1.14022e-31
5.62077e-31
-4.84406e-17
-2.34096e-17
-1.56183e-32
2.15114e-32
5.39281e-34
-3.54549e-10
-2.89979e-10
1.18829e-33
1.17504e-33
4.97223e-09
9.73737e-09
3.0697e-11
6.23306e-12
5.16108e-11
0.579475
0.883085
0.663357
4.20856e-34
-6.11659e-08
-2.96434e-28
-2.10364e-28
8.41568e-12
-1.31806e-07
-6.98687e-08
-1.19819e-22
-6.67002e-23
-1.85795e-26
-8.74812e-27
-4.22429e-06
-1.21686e-18
-2.98829e-32
-1.60204e-05
7.11351e-31
4.97192e-20
1.46572e-20
-1.69459e-08
-1.70311e-09
4.27555e-26
1.01776e-26
-2.20498e-26
0.120417
-8.30255e-25
-4.42104e-25
1.8419e-13
4.48199e-24
1.56341e-24
1.03404e-06
8.0758e-19
1.3994e-29
5.65864e-30
-9.34575e-15
2.53202e-12
-2.18534e-32
-0.0242354
-9.26938e-22
-3.59807e-21
6.87289e-16
-1.10103e-24
3.12888e-25
-3.83054e-25
6.97321e-26
-1.16302e-26
-7.67154e-27
1.52608e-27
8.47968e-28
-4.00049e-28
-8.82598e-29
1.66876e-30
-2.33608e-14
3.76533e-31
-2.1401e-31
4.87221e-34
0.424155
1.26564e-21
1.70572e-30
1.24571e-12
1.3321e-12
-7.56597e-21
3.78804e-16
-8.58277e-30
3.12543e-28
2.75865e-07
5.88817e-08
-1.36972e-29
-1.2129e-29
-2.72819e-29
0.99392
-1.40082e-23
0.0448954
1.13899e-30
-6.91475e-10
-2.45817e-25
-1.47468e-12
1.48674e-24
0.122026
1.53103e-10
0.294682
1.00399
2.71873e-17
2.45868e-15
2.80949e-15
-1.14811e-16
5.05582e-16
-5.14319e-15
-1.72508e-16
2.22746e-14
1.1296e-13
-1.55858e-10
-7.79184e-10
5.90393e-05
-6.35751e-10
-5.85254e-10
1.24682e-09
-3.35528e-09
0.000198713
6.53728e-09
-2.12192e-08
5.18702e-08
-1.37715e-08
-1.90714e-07
-9.58548e-07
3.98615e-06
9.01708e-06
-2.35434e-05
-0.00017286
0.000259681
0.0016993
-0.000198029
-0.0119778
-1.64918e-05
-3.19247e-05
-1.44505e-05
1
4.51804e-26
4.87763e-26
-2.71785e-25
0.000258659
0.000442761
-0.000963062
-0.00014526
2.41203e-33
-0.000109016
0.228694
-0.00434302
0.00177484
0.000801007
0.0140105
-0.00192157
0.000309861
0.00161605
0.000180981
-0.000170001
-1.59451e-05
8.77502e-06
7.10533e-27
2.35111e-33
-1.02163e-32
3.58117e-06
-1.13641e-06
-1.20064e-07