/*--------------------------------*- C++ -*----------------------------------*\
  =========                 |
  \\      /  F ield         | OpenFOAM: The Open Source CFD Toolbox
   \\    /   O peration     | Website:  https://openfoam.org
    \\  /    A nd           | Version:  7
     \\/     M anipulation  |
\*---------------------------------------------------------------------------*/
FoamFile
{
    version     2.0;
    format      ascii;
    class       volScalarField;
    location    "0.88";
    object      T;
}
// * * * * * * * * * * * * * * * * * * * * * * * * * * * * * * * * * * * * * //

dimensions      [0 0 0 1 0 0 0];

internalField   nonuniform List<scalar> 
46572
(
0
0
0
0
0
0
0
0
0
0
0
0
0
0
0
0
0
0
0
0
0
0
0
0
0
0
0
0
0
0
0
0
0
0
0
0
0
0
0
0
0
0
0
0
0
0
0
0
0
0
0
0
0
0
0
0
0
0
0
0
0
0
0
0
0
0
0
0
0
0
0
0
0
0
0
0
0
0
0
0
0
0
0
0
0
0
0
0
0
0
0
0
0
0
0
0
0
0
0
0
0
0
0
0
0
0
0
0
0
0
0
0
0
0
0
0
0
0
0
0
0
0
0
0
0
0
0
0
0
0
0
0
0
0
0
0
0
0
0
0
0
0
0
0
0
0
0
0
0
0
0
0
0
0
0
0
0
0
0
0
0
0
0
0
0
0
0
0
0
0
0
0
0
0
0
0
0
0
0
0
0
0
0
0
0
0
0
0
0
0
0
0
0
0
0
0
0
0
0
0
0
0
0
0
0
0
0
0
0
0
0
0
0
0
0
0
0
0
0
0
0
0
0
0
0
0
0
0
0
0
0
0
0
0
0
0
0
0
0
0
0
0
0
0
0
0
0
-2.07012e-140
3.57175e-152
-1.75494e-135
-1.81535e-135
-1.48231e-134
-1.11066e-133
-1.68824e-128
5.40878e-131
2.08253e-123
2.67991e-123
1.46541e-122
2.00512e-122
3.12982e-121
-1.23072e-120
2.17494e-120
4.22973e-120
1.65416e-115
-4.38126e-116
8.44167e-113
-3.13927e-113
4.03379e-111
-1.49107e-111
1.63991e-110
1.13805e-110
1.1168e-110
5.15457e-111
1.7623e-109
-5.09683e-109
4.78623e-108
7.75288e-108
2.7037e-108
4.84921e-108
5.61554e-105
7.48463e-105
1.7691e-103
-6.7101e-103
6.35174e-102
-5.59812e-104
1.26146e-100
-1.93361e-100
1.8768e-98
2.04268e-98
2.01101e-98
2.31808e-98
1.34155e-98
1.38918e-98
2.0171e-98
-5.37156e-99
2.061e-96
2.39332e-96
1.31822e-96
1.51163e-96
2.12712e-96
-3.72676e-96
1.6433e-95
1.27308e-95
2.10763e-95
2.11559e-95
1.85265e-95
1.65941e-95
1.61053e-95
2.32978e-96
1.1091e-94
1.22495e-94
2.17042e-94
2.2409e-94
1.45906e-94
1.50532e-94
1.18228e-94
1.08078e-94
1.83424e-93
1.87566e-93
1.25476e-93
1.0802e-93
8.96062e-94
6.13498e-94
6.83425e-94
2.04125e-94
5.2719e-94
1.27722e-94
5.45481e-93
-1.57033e-93
5.49994e-93
-1.6129e-93
1.126e-91
7.21729e-92
2.44258e-91
2.5569e-91
1.6019e-91
1.64146e-91
1.30921e-91
2.58186e-92
2.89843e-91
1.86759e-91
4.75359e-91
2.23352e-91
1.09394e-90
2.7932e-91
1.13494e-90
-3.95529e-91
6.80166e-90
6.51998e-90
4.51762e-90
4.25464e-90
3.26752e-90
1.83117e-90
4.37873e-90
3.90268e-90
3.02792e-90
2.59025e-90
2.41186e-90
6.88074e-91
1.15836e-89
1.16245e-89
7.64141e-90
7.45189e-90
6.05524e-90
1.6998e-90
9.78476e-90
5.34585e-90
1.03118e-89
8.10641e-90
8.28722e-90
5.32774e-90
7.23324e-90
9.28203e-91
1.83106e-89
1.77519e-89
1.60068e-89
-1.46386e-90
1.88737e-89
8.26968e-90
1.3606e-89
5.8058e-90
9.93958e-90
4.43566e-90
8.27775e-90
-2.44509e-91
1.36563e-89
4.71052e-90
3.59948e-89
2.9943e-89
6.0392e-89
4.4284e-89
4.30013e-89
3.11205e-89
3.05611e-89
2.04534e-89
5.20479e-89
2.08051e-89
7.44686e-89
6.50092e-89
4.96047e-89
4.29825e-89
3.58696e-89
2.14604e-89
3.65097e-89
2.9501e-89
2.42686e-89
2.74608e-89
1.55836e-89
1.69314e-89
1.3191e-89
1.35465e-91
1.68991e-89
1.53427e-89
1.0112e-89
5.22759e-89
4.94806e-90
2.31039e-89
9.03287e-90
-7.73232e-91
6.81303e-90
1.08965e-89
-6.64219e-89
8.51491e-89
-1.60401e-88
-2.82043e-89
-1.55847e-88
3.9356e-89
-1.10671e-88
-7.90449e-89
-9.74628e-89
-3.19319e-88
6.78585e-89
-8.7695e-88
4.02195e-88
-1.62929e-87
1.2314e-87
-2.78424e-87
1.49163e-87
-2.32092e-87
2.73802e-87
-4.1249e-87
3.25974e-87
-3.70025e-87
3.41044e-87
-1.99307e-87
3.68465e-87
-3.20455e-87
4.23566e-87
-5.7176e-87
1.30282e-86
-8.80497e-87
1.24854e-86
-1.80236e-86
2.34038e-86
-4.35471e-86
3.94098e-86
-5.1694e-86
4.70709e-86
-4.0745e-86
5.00268e-86
-4.56897e-86
5.76799e-86
-5.95796e-86
6.40214e-86
-5.70127e-86
7.29828e-86
-6.4038e-86
7.24817e-86
-4.21833e-86
6.67406e-86
-2.54156e-86
6.0252e-86
-2.5959e-86
5.43989e-86
-2.09516e-86
5.07719e-86
-2.20667e-86
6.31912e-86
-6.74838e-86
7.99378e-86
-3.71052e-86
8.47468e-86
-6.03571e-86
7.94738e-86
-5.43904e-86
1.09922e-85
-7.75055e-86
1.29831e-85
-2.76462e-86
1.11716e-85
-5.61989e-86
1.23037e-85
-9.33519e-86
1.20649e-85
-6.39418e-86
1.38295e-85
-1.25179e-85
1.82334e-85
-1.97147e-85
2.32288e-85
-2.71528e-85
2.33829e-85
-2.3964e-85
2.55029e-85
-2.86311e-85
2.73587e-85
-2.99251e-85
3.27267e-85
-2.87076e-85
3.04586e-85
-2.04171e-85
3.96645e-85
-2.93579e-85
4.65325e-85
-1.79195e-85
4.11959e-85
-2.48376e-85
4.29659e-85
-3.19993e-85
4.62738e-85
-3.23913e-85
4.46924e-85
-2.53838e-85
4.24374e-85
-2.66091e-85
4.14652e-85
-1.67901e-85
4.07028e-85
-8.18391e-86
3.41529e-85
-8.57061e-86
3.05642e-85
-1.05438e-85
2.89702e-85
-6.85011e-86
2.42488e-85
-4.45679e-86
2.05722e-85
-5.63902e-86
1.89124e-85
-2.34949e-86
1.48924e-85
-4.1823e-86
1.25866e-85
-3.19851e-86
1.03701e-85
-3.13636e-86
8.37258e-86
-2.8176e-86
6.72848e-86
-1.89097e-86
5.36783e-86
-5.22775e-88
3.41028e-86
-6.12873e-87
2.4771e-86
3.82563e-88
2.47178e-86
-7.05415e-87
8.42973e-86
2.11322e-85
-4.97376e-84
1.20767e-85
2.20832e-82
-1.00784e-82
7.40132e-82
-4.83305e-82
1.09751e-80
-1.93331e-80
8.24255e-79
3.6686e-80
-5.92763e-77
-2.91094e-78
3.43129e-76
2.79124e-76
1.26461e-74
1.32687e-74
2.27876e-73
2.38854e-73
9.01526e-73
-4.63886e-73
4.4297e-71
1.55613e-71
-2.03594e-70
-7.9426e-70
8.94519e-69
1.66708e-69
4.37913e-67
-7.98643e-68
5.70876e-66
-3.17077e-67
-3.06975e-65
-9.22138e-65
-4.21949e-64
-3.29493e-64
-1.841e-62
-9.89059e-05
-3.31728e-05
-2.10539e-06
-6.29877e-08
4.11698e-09
2.60129e-10
2.80391e-12
-9.76644e-14
-2.31642e-15
-1.47182e-17
-6.09044e-20
-1.0174e-22
4.81846e-23
-5.41024e-25
-8.71969e-27
5.78294e-29
3.5853e-31
-8.05574e-34
-9.04227e-36
3.25109e-38
2.62366e-40
-3.22714e-42
1.53124e-44
-2.92497e-47
-1.98048e-49
2.94845e-51
-3.31297e-53
3.30813e-55
-2.6314e-57
1.23267e-59
-0.000102682
4.76688e-11
1.92623e-10
2.28884e-12
-1.60039e-11
1.57347e-09
2.76736e-09
-6.06027e-09
-2.38691e-08
-8.42487e-09
9.92377e-08
1.48248e-07
-5.71462e-07
-3.36565e-06
-8.55053e-06
-1.09221e-05
8.93197e-06
9.86189e-05
0.000352815
0.000925609
0.00202876
0.00401151
0.00722487
0.0119767
0.0188934
0.0280569
0.0397931
0.0538765
0.0706561
0.0892654
0.108288
0.126571
0.146608
0.163412
0.176773
0.185294
0.189356
0.190086
0.183424
0.170168
0.153414
0.131562
0.10623
0.0806646
0.0536266
0.0281367
0.00369584
-0.0168288
-0.0363121
-0.051902
-0.0623725
-0.069306
-0.0736312
-0.0769103
-0.0761573
-0.0713675
-0.0677635
-0.0616816
-0.0549399
-0.0483588
-0.0402775
-0.0351562
-0.0296407
-0.0242297
-0.0198212
-0.0161391
-0.0131222
-0.0104877
-0.00791718
-0.00625688
-0.00476888
-0.0035557
-0.00265701
-0.0019992
-0.00145849
-0.00105513
-0.000744852
-0.000546544
-0.000389109
-0.000284073
-0.000157021
-0.000104829
-1.67232e-13
-1.88926e-12
-7.91511e-13
-3.18788e-12
-2.5989e-12
4.32328e-13
-2.86064e-12
9.8393e-12
-5.56003e-12
-1.38578e-11
1.16625e-11
-6.60044e-12
2.15618e-12
-1.13348e-12
1.25084e-12
-5.60843e-13
1.67692e-13
1.50546e-12
-1.67159e-12
1.14224e-12
-1.67261e-13
3.8051e-13
-3.21328e-12
-1.26416e-12
-4.32848e-12
2.95873e-12
3.62362e-12
-5.37976e-12
-2.39103e-12
4.09162e-13
-3.71595e-12
3.92455e-12
2.85665e-12
4.39754e-12
3.64244e-12
1.84235e-12
4.10081e-12
-4.31435e-12
-1.31331e-12
2.20045e-12
4.16052e-13
-2.18658e-12
2.74865e-12
2.38925e-13
-9.26718e-13
-1.14191e-11
-1.51126e-11
-3.3022e-11
-3.95529e-12
-8.22212e-13
-2.30107e-11
1.27401e-11
3.25277e-12
1.88464e-11
1.02687e-11
2.51425e-11
3.71659e-11
-1.55246e-11
4.47209e-14
-7.91997e-11
-3.41529e-11
-1.34219e-10
-7.3314e-11
-9.00289e-11
-8.91042e-11
4.86235e-12
7.65827e-12
1.24986e-10
7.24353e-11
2.71581e-11
4.16086e-11
-2.13937e-10
-1.47876e-10
-3.99082e-10
-4.68801e-10
-3.25895e-10
-6.79649e-10
1.91872e-10
-6.75518e-10
8.233e-10
-1.63637e-10
7.92364e-10
3.85034e-10
-7.08198e-10
-1.31632e-10
-5.31304e-09
-3.27406e-09
-1.2673e-08
-1.02041e-08
-1.99956e-08
-2.11984e-08
-2.01321e-08
-3.32465e-08
-3.27631e-09
-3.95733e-08
4.38144e-08
-3.1194e-08
1.23807e-07
1.96783e-09
2.31485e-07
5.69962e-08
3.38404e-07
1.20447e-07
3.67724e-07
1.41206e-07
2.23931e-07
3.56701e-08
-2.30213e-07
-3.28777e-07
-1.0841e-06
-1.13814e-06
-2.36248e-06
-2.58616e-06
-3.7771e-06
-4.78874e-06
-4.78586e-06
-7.79263e-06
-3.85569e-06
-1.11013e-05
1.37421e-06
-1.41242e-05
1.49076e-05
-1.4838e-05
4.23052e-05
-1.05226e-05
9.17369e-05
1.81342e-06
0.000176239
2.97368e-05
0.000307564
8.36373e-05
0.000505736
0.000167774
0.000797258
0.000302899
0.00119922
0.000502125
0.00175582
0.000777243
0.0024795
0.00117154
0.00346112
0.00167266
0.00467109
0.00237695
0.00619602
0.00322127
0.00813595
0.00433416
0.0103884
0.0056851
0.0130877
0.00724546
0.0164266
0.00918837
0.0201743
0.0115386
0.0244236
0.014065
0.0294889
0.0171027
0.0348329
0.0204042
0.0407572
0.0238807
0.0475898
0.0278891
0.0541799
0.0321454
0.0621179
0.036724
0.0706526
0.0422705
0.0789771
0.0475424
0.0879027
0.0525834
0.0961343
0.0579016
0.105799
0.0632038
0.114735
0.0689049
0.122949
0.0733978
0.132426
0.078641
0.139574
0.0826173
0.146343
0.0854796
0.153963
0.088695
0.157668
0.0905892
0.163587
0.092295
0.168588
0.0952175
0.170875
0.0956532
0.172697
0.0942697
0.171667
0.0924393
0.171865
0.0892336
0.168999
0.0862212
0.164621
0.0803063
0.161031
0.0759481
0.153868
0.0684898
0.145764
0.0601719
0.138641
0.0529278
0.129305
0.0449636
0.118602
0.0345488
0.107968
0.0257312
0.0960149
0.0157202
0.0845708
0.00479423
0.0721256
-0.00557702
0.0604133
-0.0162236
0.0477289
-0.0258638
0.0356204
-0.0364697
0.0229796
-0.0453334
0.0118536
-0.055096
0.00100501
-0.0638162
-0.0101198
-0.0716234
-0.0204383
-0.0789656
-0.0289174
-0.0857701
-0.0385057
-0.0914014
-0.0451062
-0.096406
-0.0512028
-0.100243
-0.0582964
-0.103447
-0.0615298
-0.10533
-0.0659614
-0.107469
-0.0707093
-0.10924
-0.0735891
-0.109636
-0.0755351
-0.109309
-0.0756504
-0.107861
-0.0764543
-0.10676
-0.0769393
-0.104669
-0.074641
-0.10162
-0.0754516
-0.09871
-0.0721419
-0.0948561
-0.0693263
-0.0905976
-0.0684647
-0.0874967
-0.065664
-0.0834252
-0.0617239
-0.0785409
-0.0595892
-0.0745006
-0.0564743
-0.0701384
-0.0533657
-0.0657582
-0.0495749
-0.0612493
-0.0465802
-0.0572212
-0.0435818
-0.0531079
-0.0399876
-0.0488368
-0.0377551
-0.0453157
-0.0341694
-0.0413027
-0.0310824
-0.0375644
-0.0288757
-0.0345275
-0.026496
-0.0315678
-0.0237009
-0.0284397
-0.021762
-0.0258551
-0.019631
-0.0232935
-0.0176831
-0.020916
-0.0157496
-0.0186647
-0.0141161
-0.0167499
-0.0126357
-0.0149192
-0.0110904
-0.0131022
-0.0097245
-0.0114795
-0.00866679
-0.0102234
-0.00768303
-0.00905539
-0.00686318
-0.00805748
-0.00607098
-0.00711164
-0.00523305
-0.0061767
-0.00466255
-0.00543421
-0.00400532
-0.00468615
-0.00343435
-0.00404067
-0.00301431
-0.00351616
-0.00254625
-0.00299089
-0.00221239
-0.00259684
-0.00193609
-0.0022659
-0.0016649
-0.00195125
-0.00143165
-0.0016745
-0.00121646
-0.00142982
-0.00104631
-0.00122826
-0.000897026
-0.0010477
-0.000751202
-0.0008835
-0.000649399
-0.000757549
-0.00054595
-0.000639896
-0.000463706
-0.000541435
-0.000400595
-0.000461213
-0.000335036
-0.000383536
-0.000269426
-0.000314801
-0.00022464
-0.000272569
-0.000224327
-0.000162981
-0.000241852
-8.91665e-19
1.2757e-17
2.13432e-15
1.32143e-13
2.58274e-12
-2.32321e-11
5.71288e-10
4.28197e-08
1.49321e-06
3.34281e-08
1.81924e-05
1.28988e-05
5.22925e-06
-9.3379e-48
-6.54814e-39
-2.83829e-33
-2.88653e-29
-3.21582e-27
2.2816e-25
-3.46399e-24
-1.28779e-23
-1.64921e-23
-7.84122e-24
5.21976e-24
-2.83947e-23
-4.028e-23
-4.45631e-25
-1.78069e-23
6.4401e-23
7.57456e-24
-1.00544e-23
-1.91822e-23
-9.14906e-24
-4.33228e-23
-7.27874e-23
-6.34921e-23
-5.97871e-23
-1.20299e-22
-2.28425e-22
-1.41629e-22
-2.16487e-22
-2.73361e-22
-2.42597e-22
-4.10214e-22
-5.45861e-22
-5.7051e-22
-3.72469e-22
-1.31676e-23
3.34932e-22
2.25423e-22
1.09013e-22
-4.69388e-22
-8.90231e-22
-1.53676e-21
-1.60411e-21
-1.58001e-21
-1.37913e-21
-6.98562e-22
1.0765e-22
4.16257e-22
1.02951e-21
1.27987e-21
1.42916e-21
1.25634e-21
9.76551e-22
5.26825e-22
3.41103e-22
1.16684e-22
1.26787e-23
-9.04773e-23
-1.00319e-22
-1.27029e-22
-1.1679e-22
-7.88144e-23
-6.5383e-23
-5.23715e-23
-3.76841e-23
-2.56924e-23
-1.39953e-23
-9.8679e-24
-6.95846e-24
-2.26928e-24
-2.09525e-24
-1.44062e-24
-1.28693e-24
-9.80859e-25
-4.18899e-25
-1.15848e-25
2.49546e-25
5.61409e-25
6.29416e-25
8.19458e-25
7.95712e-25
6.59648e-25
3.16009e-25
2.71055e-25
1.48427e-25
5.24823e-26
1.79805e-26
-1.48767e-26
-2.5758e-26
-2.88629e-26
-2.09975e-26
-2.04862e-26
-9.17287e-27
-5.62153e-27
-2.22978e-27
-2.34196e-27
-2.7248e-27
5.67578e-26
-1.50547e-26
5.04563e-22
-3.48568e-20
-2.31188e-62
4.69405e-07
3.23125e-07
1.69878e-05
9.20255e-06
-3.40173e-06
-8.20904e-08
1.08294e-09
-1.27034e-09
-3.77901e-11
1.93866e-13
1.85709e-14
2.24727e-16
7.11506e-19
9.53948e-21
-2.75226e-22
-1.70613e-24
1.0562e-25
6.2231e-29
-6.31051e-30
-6.36806e-33
1.10469e-34
3.06893e-37
-5.90081e-39
2.41659e-41
3.83519e-44
-9.69803e-46
6.3785e-48
-3.44887e-50
2.59781e-52
-2.57166e-54
1.71291e-56
-7.42471e-59
-4.07522e-13
2.4081e-61
1.12298e-10
9.94252e-11
-1.99316e-10
5.34064e-10
2.5575e-09
3.77155e-10
-1.56496e-08
-2.4501e-08
3.2532e-08
1.61584e-07
-4.089e-08
-1.61548e-06
-5.79282e-06
-1.08878e-05
-6.01141e-06
4.05398e-05
0.000196381
0.000590578
0.0013936
0.00289756
0.00540569
0.00933419
0.0151438
0.0230139
0.0332704
0.046767
0.0615578
0.0788691
0.0987065
0.11758
0.13748
0.154563
0.168717
0.183425
0.187904
0.190593
0.185676
0.175074
0.162587
0.141361
0.118166
0.0931766
0.0674675
0.0408958
0.0158978
-0.00606474
-0.0279868
-0.0431943
-0.0556864
-0.0677575
-0.0721719
-0.0756077
-0.0750983
-0.0718908
-0.0702682
-0.0628105
-0.056676
-0.0508724
-0.0439944
-0.0377717
-0.03256
-0.0263163
-0.0224829
-0.0179417
-0.0145594
-0.0115092
-0.00892763
-0.00702286
-0.00535039
-0.00403087
-0.00313412
-0.00228208
-0.00166552
-0.00122543
-0.000870702
-0.000639392
-0.000450041
-0.000328321
-0.000268277
1.33564e-12
1.47676e-12
9.73488e-13
2.11532e-12
2.23968e-12
3.60272e-12
-3.08906e-12
-8.61431e-12
1.21593e-11
6.7325e-12
-3.17077e-11
4.03984e-13
2.07685e-13
-5.03666e-15
5.67074e-13
-5.64051e-13
-4.01452e-13
2.07378e-12
-1.67303e-12
1.02705e-12
-2.15366e-13
-3.59775e-13
-1.70958e-16
-1.89236e-14
-7.55618e-13
-2.84781e-12
4.0269e-11
-5.28498e-09
-2.94089e-07
-4.45011e-06
2.8298e-15
-3.29159e-43
-4.75395e-36
-2.64042e-31
-6.77379e-28
-1.49597e-26
5.49789e-26
9.02375e-24
1.30002e-23
1.355e-23
4.28823e-24
-1.12183e-24
3.6472e-23
3.27464e-24
-9.1494e-24
1.59193e-24
-6.94853e-23
2.7513e-23
-6.65863e-24
-2.46549e-23
2.63168e-23
-3.6612e-23
-8.84061e-23
-1.03107e-22
-2.2506e-22
-6.12675e-23
-9.73599e-23
-2.02047e-22
-6.78996e-23
-3.32966e-22
-5.86147e-22
-5.18937e-22
-6.46318e-22
-5.44025e-22
-3.76672e-22
3.22295e-23
2.81351e-22
1.30566e-22
-3.38901e-22
-5.58105e-22
-1.4706e-21
-1.80273e-21
-1.98945e-21
-1.66409e-21
-8.3253e-22
-2.68556e-22
3.38201e-22
8.31214e-22
1.15899e-21
1.40712e-21
1.33222e-21
1.06933e-21
8.2657e-22
4.96873e-22
2.21075e-22
5.0835e-23
-4.88029e-23
-1.32104e-22
-1.34078e-22
-1.17109e-22
-1.14513e-22
-6.92057e-23
-5.77055e-23
-4.33759e-23
-2.85266e-23
-2.29667e-23
-1.23248e-23
-8.08938e-24
-6.82629e-24
-2.04618e-24
-2.99711e-24
-1.03723e-24
-1.47391e-24
-1.05968e-24
-5.82911e-25
-1.59957e-25
4.77191e-25
4.16023e-25
6.8025e-25
7.38968e-25
6.37349e-25
6.58921e-25
3.19767e-25
1.78234e-25
1.19329e-25
5.22044e-26
9.79562e-27
-1.96105e-26
-2.4187e-26
-3.2333e-26
-2.29715e-26
-1.23757e-26
-6.40859e-27
-2.02762e-27
-1.78794e-27
-1.56267e-27
-1.32991e-27
-1.41102e-25
-3.02102e-23
2.16993e-20
-8.8582e-62
1.03092e-50
-5.32819e-11
7.75631e-13
3.48738e-14
3.15482e-16
8.11613e-19
1.52144e-20
-5.95165e-22
-1.44402e-24
2.00512e-25
6.74502e-29
-1.02814e-29
-1.16789e-32
1.82102e-34
5.44321e-37
-1.0133e-38
4.06796e-41
5.82346e-44
-1.65664e-45
1.06451e-47
-6.33514e-50
5.18852e-52
-4.87961e-54
3.30904e-56
-1.52256e-58
6.44288e-61
3.52437e-12
-2.91328e-10
-2.38132e-10
1.80743e-09
2.31919e-09
-7.44501e-09
-2.46307e-08
8.40358e-09
1.40247e-07
1.81936e-07
-7.45001e-07
-4.33257e-06
-1.19515e-05
-2.14994e-05
-1.93417e-05
2.8496e-05
0.000194764
0.000585248
0.00139203
0.00282454
0.00511114
0.00854925
0.0134601
0.0198356
0.0282789
0.0373462
0.0483597
0.060478
0.071056
0.0824938
0.0928448
0.0996408
0.10694
0.105482
0.103991
0.0964612
0.0838164
0.0711734
0.0493741
0.0275218
0.0059062
-0.0173492
-0.0392156
-0.0588484
-0.0769132
-0.0908529
-0.101996
-0.108932
-0.113723
-0.113282
-0.112456
-0.107966
-0.100707
-0.0942013
-0.0840485
-0.0741961
-0.06552
-0.0562749
-0.0475769
-0.0405411
-0.0330216
-0.0275073
-0.0218974
-0.017808
-0.0140969
-0.0109533
-0.00852739
-0.00651217
-0.0049081
-0.00376513
-0.00274548
-0.00202027
-0.00148501
-0.00105924
-0.000770744
-0.000548151
-0.000397143
-0.000304862
-1.71257e-12
-7.30219e-13
-3.24943e-12
-6.51182e-13
-7.15839e-12
-9.00517e-12
-7.37176e-12
-9.14982e-12
-5.73187e-13
3.61451e-13
-4.68296e-13
-1.74007e-15
-5.62091e-14
8.61455e-13
-1.16488e-12
6.47328e-13
-2.41571e-13
5.58979e-14
7.06471e-13
6.29287e-12
-2.77087e-11
4.9699e-10
5.83281e-08
2.58839e-06
3.57351e-45
8.06345e-32
2.68943e-28
1.39991e-26
-1.21354e-24
-3.23287e-24
8.42432e-24
-8.46571e-24
-3.19237e-23
7.2725e-24
4.4838e-23
4.43411e-23
5.99457e-23
1.70196e-22
-8.77855e-23
7.54702e-23
-1.36056e-23
1.01037e-23
2.273e-23
4.87337e-23
2.40464e-22
2.91105e-22
2.03932e-22
3.0884e-22
2.00321e-22
-1.3576e-22
3.84835e-22
3.50595e-22
2.98556e-22
6.73677e-22
5.35135e-24
-6.66536e-22
-1.19026e-21
-7.29488e-22
1.34974e-22
8.26087e-22
1.50042e-21
1.96054e-21
1.37318e-21
5.3977e-22
-7.9656e-22
-1.94358e-21
-2.21739e-21
-3.02287e-21
-2.63734e-21
-1.9015e-21
-1.6197e-21
-6.33735e-22
-1.5903e-22
2.51184e-22
5.6521e-22
5.97793e-22
4.50474e-22
3.91996e-22
2.71564e-22
1.47904e-22
1.08686e-22
7.02236e-23
-3.47762e-24
9.03745e-24
-1.23328e-24
-7.63785e-24
-2.09132e-24
-8.97118e-24
-1.26383e-24
9.41709e-25
-1.34285e-24
4.73795e-24
4.2058e-24
2.92972e-24
5.58189e-25
1.6271e-25
-6.6467e-25
-1.14594e-24
-1.20081e-24
-1.56181e-24
-9.85878e-25
-6.65979e-25
-5.38431e-25
-2.41966e-26
-1.66429e-25
-1.05685e-25
3.57025e-26
9.69619e-27
1.72798e-26
1.48855e-26
3.43702e-26
8.12637e-27
3.8946e-26
2.6965e-26
-1.06616e-26
1.272e-26
8.62273e-28
1.25288e-26
1.61887e-26
-4.56782e-25
2.96819e-24
-5.2383e-21
-3.81422e-15
-1.86512e-17
-9.73145e-20
6.12327e-22
8.27792e-23
-1.14503e-24
-1.47576e-26
9.41946e-29
5.86777e-31
-1.16845e-33
-1.45558e-35
5.30771e-38
4.33499e-40
-5.36647e-42
2.70772e-44
-4.58552e-47
-3.44924e-49
5.09974e-51
-5.78303e-53
6.05135e-55
-4.997e-57
2.65748e-59
7.64016e-11
-9.74707e-11
-3.46739e-10
6.56776e-10
3.03268e-09
-9.116e-10
-1.74961e-08
-1.99525e-08
6.34753e-08
2.0591e-07
-6.45313e-08
-2.07148e-06
-7.59649e-06
-1.68409e-05
-2.29557e-05
-4.31217e-06
9.17335e-05
0.00035902
0.000920496
0.002023
0.00384236
0.00664344
0.010866
0.0164604
0.0237711
0.0326644
0.0429172
0.054384
0.0662893
0.0767052
0.0886704
0.0974666
0.10352
0.106736
0.104876
0.102004
0.0919902
0.0775773
0.0613373
0.0399902
0.0177359
-0.00478592
-0.0287913
-0.0490142
-0.0678301
-0.0840122
-0.0969363
-0.105814
-0.111408
-0.113649
-0.113196
-0.111105
-0.105131
-0.0974786
-0.0896532
-0.0796055
-0.0699875
-0.0612853
-0.0513191
-0.0440283
-0.0367518
-0.0300982
-0.0244703
-0.0197468
-0.0160086
-0.012617
-0.0096331
-0.00753753
-0.00572997
-0.00430798
-0.00319731
-0.00239326
-0.0017454
-0.00126668
-0.000899664
-0.00065649
-0.000469203
-0.000341351
2.53153e-13
1.68693e-12
2.18896e-12
1.57617e-12
4.61431e-12
2.87623e-12
4.59259e-12
1.72315e-11
-2.9398e-11
4.20464e-13
-2.84682e-13
1.62271e-13
-6.98295e-13
-1.16433e-13
6.75137e-13
-7.09362e-13
4.37176e-13
-1.85084e-16
-3.14185e-14
-1.53011e-12
-1.46419e-11
1.56046e-10
-6.88958e-09
-4.50464e-07
-1.13029e-05
2.19762e-34
5.38494e-30
3.43919e-27
-1.11131e-27
3.89457e-24
-3.95297e-24
2.45179e-24
4.25874e-23
1.63787e-23
-1.80892e-23
-4.49423e-23
-7.12568e-23
-1.18772e-22
-5.25789e-23
-2.74412e-24
-4.27468e-23
2.1739e-23
6.47651e-23
-5.38028e-23
9.57339e-23
2.98493e-22
2.82009e-22
4.42173e-22
-6.95825e-23
-6.03885e-23
-2.26874e-24
-9.81918e-23
4.8301e-22
9.91164e-22
3.38735e-22
-2.56263e-22
-7.13424e-22
-7.25358e-22
-2.11263e-22
2.96967e-22
1.28531e-21
1.68725e-21
1.80483e-21
1.06711e-21
3.5129e-22
-9.86915e-22
-2.08917e-21
-2.43742e-21
-2.35496e-21
-1.97174e-21
-1.81554e-21
-9.70901e-22
-2.02959e-22
2.18261e-22
4.84733e-22
3.97225e-22
4.2968e-22
3.77055e-22
4.00844e-22
1.52982e-22
1.69128e-22
8.11483e-23
2.37878e-23
8.69544e-24
-2.38652e-24
-9.23608e-24
-5.39909e-24
-8.18403e-24
-3.60207e-24
-3.559e-25
-9.33026e-25
4.79197e-24
4.81316e-24
1.81471e-24
2.37198e-24
9.2545e-25
7.69462e-25
-5.76185e-25
-1.17068e-24
-8.98764e-25
-8.07834e-25
-4.88657e-25
-4.54171e-25
-1.87743e-25
-3.19667e-25
-2.63011e-26
3.8859e-26
-2.40508e-26
-1.20568e-26
-2.35511e-26
2.60225e-27
1.35158e-26
1.37302e-26
5.2017e-27
-3.21226e-26
1.44955e-28
-8.77696e-27
7.02702e-27
1.14935e-26
2.81477e-26
9.46852e-25
3.17013e-22
-1.36418e-08
1.8646e-12
4.47882e-10
1.03675e-08
-2.5315e-09
-1.58397e-13
4.38955e-12
8.76567e-13
-8.21099e-13
1.04093e-17
2.55113e-13
7.5327e-41
5.90034e-37
1.17654e-48
8.7974e-47
1.83488e-46
-2.00653e-43
1.47566e-46
1.73498e-38
3.95156e-47
1.20143e-37
0
2.81074e-37
0
2.87998e-37
1.06187e-39
1.28203e-37
2.01799e-38
4.68744e-37
2.84059e-37
3.59157e-36
2.03451e-36
1.16248e-35
1.16553e-35
-2.36411e-35
5.37115e-35
-4.81165e-34
1.99715e-34
-3.47647e-33
6.45891e-34
-1.45643e-32
1.92348e-33
-5.54321e-32
4.76023e-33
-1.58116e-31
1.1986e-32
-4.21465e-31
2.19859e-32
-1.08107e-30
3.31477e-32
-1.90928e-30
4.07245e-32
-2.62432e-30
4.40449e-32
-3.00253e-30
4.33248e-32
-3.01421e-30
4.13582e-32
-2.87029e-30
4.20019e-32
-2.78121e-30
4.44273e-32
-2.89797e-30
4.88435e-32
-3.14881e-30
5.23326e-32
-3.47187e-30
5.31721e-32
-3.70141e-30
4.94161e-32
-3.60155e-30
4.39996e-32
-3.09373e-30
4.15586e-32
-2.8501e-30
4.05336e-32
-2.77114e-30
3.65504e-32
-2.64782e-30
3.22486e-32
-2.37599e-30
2.85669e-32
-2.12591e-30
2.05155e-32
-1.67165e-30
1.38539e-32
-1.14616e-30
8.48635e-33
-7.18267e-31
3.96243e-33
-3.53603e-31
1.53967e-33
-1.37888e-31
4.11308e-34
-3.3638e-32
9.24153e-35
-5.22126e-33
2.07111e-35
-9.58221e-34
2.97048e-36
-5.46708e-35
1.91908e-37
2.51995e-35
0
3.45142e-36
0
0
0
0
0
0
0
0
0
0
0
0
0
0
0
0
0
0
0
0
0
0
0
0
0
0
0
0
0
0
0
0
0
0
0
0
0
0
0
0
0
0
0
0
0
0
0
0
0
0
0
0
0
0
0
0
0
0
0
0
0
0
0
0
0
0
0
0
0
0
0
0
0
0
0
0
0
0
0
0
0
0
0
0
0
0
0
0
0
0
0
0
0
0
0
0
0
0
0
0
0
0
0
-8.99189e-14
0
0
0
0
0
0
0
0
0
0
0
0
0
0
0
0
0
0
0
0
0
0
0
0
0
0
0
0
0
0
0
0
0
0
0
0
0
0
0
0
0
0
0
0
-8.16004e-152
0
-2.62442e-137
-2.89111e-137
-2.52604e-133
-3.13878e-133
-2.66633e-131
9.47447e-132
-2.03343e-126
-4.69012e-127
2.17914e-121
2.70264e-121
3.28764e-120
1.60226e-121
1.45027e-116
1.79491e-116
1.6645e-116
-1.91454e-116
1.19878e-113
-3.29898e-115
1.12989e-110
-1.62257e-111
3.56803e-109
4.98877e-110
8.38232e-109
-1.00488e-108
3.11148e-108
-3.67236e-108
1.56898e-106
1.36156e-106
9.15329e-106
1.53244e-105
-2.83214e-105
1.4511e-104
1.3474e-102
-1.56098e-103
3.92073e-100
4.83283e-100
4.4213e-99
-1.0621e-98
1.27678e-97
1.36777e-97
1.45447e-96
1.62092e-96
9.51481e-97
9.69227e-97
1.50272e-96
-2.98246e-96
9.6961e-96
8.27087e-96
9.36131e-95
1.01951e-94
7.44441e-95
5.94385e-95
2.39057e-93
2.5648e-93
3.01798e-93
3.26917e-93
2.00917e-93
2.10938e-93
2.35803e-93
1.0742e-93
5.60329e-93
5.78874e-93
5.38217e-93
5.30262e-93
1.53235e-92
1.45145e-92
1.03326e-92
8.85157e-93
9.3176e-93
1.42625e-93
1.32075e-91
1.53227e-91
1.51328e-91
-2.12855e-91
1.58882e-91
-1.38236e-91
1.95728e-91
-4.14181e-92
1.63694e-91
-7.0113e-92
1.87744e-90
-1.74542e-90
1.79183e-90
-7.0168e-91
1.42918e-89
1.35102e-89
1.1022e-89
1.01203e-89
7.73729e-90
6.56484e-90
2.52736e-89
1.97149e-89
3.25828e-89
2.692e-89
6.15323e-89
-9.98807e-89
1.70947e-88
8.29638e-89
2.69462e-88
2.45431e-88
3.32584e-88
3.03532e-88
2.24989e-88
1.93558e-88
3.43628e-88
1.98415e-88
2.48563e-88
1.28116e-88
1.87833e-88
6.13205e-89
3.31657e-88
2.59845e-88
4.60354e-88
4.31722e-88
3.21057e-88
2.75726e-88
7.84617e-88
6.36014e-88
9.21263e-88
8.30307e-88
6.39793e-88
5.2049e-88
6.23516e-88
9.82259e-89
8.91124e-88
6.09477e-88
6.59436e-88
3.26062e-88
2.12228e-87
1.4375e-87
1.56476e-87
9.69851e-88
1.10835e-87
7.29606e-88
8.00516e-88
3.27852e-88
1.00306e-87
5.98932e-88
1.10057e-87
5.55551e-88
1.35954e-87
8.34203e-88
2.61512e-87
5.26994e-88
1.94082e-87
3.02965e-88
1.57266e-87
2.23425e-88
3.6159e-87
2.33342e-87
2.6171e-87
1.63749e-87
1.87028e-87
1.27177e-87
2.45729e-87
1.75738e-87
2.23342e-87
1.92934e-87
1.57388e-87
1.04616e-87
1.03941e-87
8.43906e-88
1.3802e-87
1.07634e-87
7.82621e-88
9.88542e-88
8.92233e-88
3.74756e-87
-4.94271e-89
4.10027e-87
-6.81305e-88
3.59546e-87
-1.67788e-87
4.11713e-87
-5.28688e-87
2.9602e-87
-6.8525e-87
6.83448e-87
-8.12257e-87
3.60675e-87
-7.85614e-87
-8.2848e-87
-6.39382e-87
-1.77448e-86
6.29354e-87
-3.72539e-86
2.35912e-86
-5.91851e-86
5.37303e-86
-6.296e-86
5.44601e-86
-3.09857e-86
1.01735e-85
-4.51877e-86
1.11771e-85
-1.21947e-85
9.63521e-86
-8.84547e-86
1.26733e-85
-2.03048e-85
1.85178e-85
-3.06095e-85
4.43332e-85
-5.45964e-85
5.99115e-85
-7.56077e-85
1.18584e-84
-1.03327e-84
1.64355e-84
-1.24351e-84
1.65718e-84
-1.06756e-84
1.80167e-84
-1.48179e-84
2.14293e-84
-8.99753e-85
2.2584e-84
-1.20589e-84
2.51344e-84
-3.33015e-85
2.20305e-84
-7.52533e-85
1.85243e-84
-7.49245e-85
1.729e-84
-9.85241e-85
1.55007e-84
-1.09758e-84
1.57586e-84
-1.44031e-84
2.35271e-84
-1.06535e-84
2.32068e-84
-1.74201e-84
2.67867e-84
-1.76446e-84
2.56321e-84
-1.75495e-84
3.3519e-84
-1.26594e-84
3.13397e-84
-1.86211e-84
3.12308e-84
-1.75654e-84
3.73663e-84
-2.19917e-84
3.46426e-84
-1.9377e-84
4.45852e-84
-4.38745e-84
6.08494e-84
-4.98467e-84
7.63105e-84
-3.97255e-84
7.37898e-84
-3.66689e-84
8.3344e-84
-4.89166e-84
8.72392e-84
-5.33282e-84
9.28696e-84
-4.20531e-84
8.15307e-84
-5.00016e-84
1.0188e-83
-5.15473e-84
1.02387e-83
-7.27959e-84
9.83591e-84
-5.08172e-84
1.04425e-83
-5.71786e-84
1.0649e-83
-5.54606e-84
9.62661e-84
-4.23391e-84
8.87494e-84
-4.6592e-84
7.51619e-84
-3.1838e-84
6.63978e-84
-3.53511e-84
5.69512e-84
-3.06918e-84
5.13908e-84
-2.11281e-84
4.28301e-84
-1.48958e-84
3.45196e-84
-1.2563e-84
2.90093e-84
-1.13869e-84
2.33503e-84
-9.22396e-85
1.88861e-84
-5.31069e-85
1.25063e-84
-4.27562e-85
8.85528e-85
-4.29415e-85
6.48282e-85
-1.49174e-85
3.75441e-85
6.49479e-86
1.03866e-85
-7.7732e-86
2.34575e-86
1.05228e-86
-1.8951e-85
9.85867e-86
-3.26442e-85
4.55921e-86
6.11586e-84
-6.6634e-85
-2.44129e-82
-2.27517e-82
-3.08068e-81
2.22707e-81
3.4389e-80
-2.6279e-80
-1.84444e-79
-1.65267e-79
1.94006e-78
-4.01943e-78
2.8416e-76
2.10236e-77
-2.22277e-75
-2.13582e-76
3.4724e-73
-1.99178e-73
5.47774e-72
7.48631e-72
3.64596e-71
-6.39115e-71
6.41642e-70
-5.78764e-70
8.54109e-69
2.30015e-69
-5.10577e-68
-3.40954e-67
5.37201e-66
-9.71689e-67
1.19722e-64
-4.10213e-65
-1.02201e-63
-1.13436e-63
-1.97527e-63
-7.381e-62
-3.41299e-64
3.72144e-13
-6.91268e-08
-2.96011e-06
1.43555e-05
2.19025e-05
-4.75196e-06
-2.36011e-09
1.04291e-08
-4.63815e-09
3.14076e-14
-5.00494e-13
2.55716e-16
4.49528e-19
1.44344e-20
-5.92719e-22
-1.34015e-24
1.95592e-25
1.38882e-28
-9.11963e-30
-1.33136e-32
1.53606e-34
6.31246e-37
-9.53729e-39
3.5138e-41
8.3406e-44
-1.67863e-45
1.02861e-47
-6.04014e-50
5.0259e-52
-4.63337e-54
2.9284e-56
-1.2255e-58
5.0189e-61
-2.05563e-61
1.07088e-10
8.69324e-13
-1.41237e-10
-3.69894e-10
5.93954e-10
2.00428e-09
-2.59788e-09
-1.5339e-08
-1.28479e-08
4.97826e-08
1.20153e-07
-1.92731e-07
-1.78511e-06
-5.5859e-06
-1.06532e-05
-1.05878e-05
1.19913e-05
9.308e-05
0.000290194
0.00067558
0.00138775
0.00247851
0.00397849
0.00619181
0.00871467
0.0118446
0.0151531
0.018187
0.0211285
0.0229256
0.0225402
0.0228566
0.0199644
0.0153347
0.00896062
0.000720735
-0.00685768
-0.0171872
-0.0278006
-0.0368928
-0.0454092
-0.0533348
-0.0579867
-0.0605229
-0.0611858
-0.0600229
-0.0563182
-0.0529799
-0.0458867
-0.0402651
-0.0340307
-0.0272329
-0.0233881
-0.0180095
-0.0134854
-0.0101055
-0.00625434
-0.00383826
-0.00236478
0.000184705
0.000372431
0.00113042
0.00152752
0.00159741
0.00157951
0.00119969
0.00101473
0.00103959
0.000801356
0.000632386
0.000503809
0.00042203
0.000305728
0.00023616
0.000191
0.000159969
0.000112842
7.13644e-05
3.6751e-05
-2.02712e-12
-0.000194379
6.24132e-12
7.62264e-14
-2.11757e-13
-3.58498e-12
-1.65793e-13
-5.86066e-12
-1.07178e-11
3.71877e-12
-9.88948e-12
-9.69011e-13
3.38574e-13
-3.57263e-13
-4.09878e-11
4.7447e-13
1.48075e-13
-2.58046e-13
7.86677e-18
9.21107e-14
-2.35324e-13
-6.23172e-13
7.6184e-13
-6.22102e-13
3.66972e-14
3.41367e-14
2.07293e-13
1.27913e-13
2.02533e-13
-2.09755e-13
5.32741e-14
4.22977e-11
7.29436e-11
-4.28515e-11
-3.85754e-12
8.58857e-12
-1.22211e-12
3.8498e-12
-1.9304e-12
-3.38355e-12
1.4966e-12
7.75512e-13
-1.44834e-12
5.61271e-13
-4.10618e-12
-1.63118e-12
-8.84126e-12
-5.34296e-12
-4.00281e-13
-6.10782e-12
7.05676e-12
3.73919e-12
9.14238e-12
7.1508e-12
4.51538e-13
1.07975e-11
3.6422e-12
8.2131e-12
-1.65061e-12
-6.70021e-12
5.81658e-12
1.35927e-11
3.68123e-12
1.91452e-11
-1.10079e-11
5.95133e-12
-4.02898e-11
5.53567e-12
-8.03553e-11
-3.69268e-11
-2.2764e-11
-2.47661e-12
4.09635e-11
6.01396e-11
1.59518e-10
1.63002e-10
1.71082e-10
2.61404e-10
2.25793e-11
3.14435e-10
-3.03394e-10
1.72438e-10
-6.53014e-10
-1.90924e-11
-7.26933e-10
-9.63575e-11
-4.45515e-10
2.90139e-10
4.19136e-10
1.2851e-09
1.28911e-09
2.72837e-09
1.36189e-09
4.18414e-09
-5.24609e-10
4.88308e-09
-5.23678e-09
3.44707e-09
-1.20637e-08
-3.99757e-10
-1.92804e-08
-5.7311e-09
-2.03148e-08
-9.01299e-09
-1.0124e-08
-4.01663e-09
1.59456e-08
1.26166e-08
5.47661e-08
4.82576e-08
8.76464e-08
9.66432e-08
7.44627e-08
1.37727e-07
-5.32006e-08
1.23381e-07
-3.80392e-07
-2.03193e-08
-1.01776e-06
-4.07982e-07
-2.09588e-06
-1.16867e-06
-3.5637e-06
-2.4944e-06
-5.2998e-06
-4.45613e-06
-7.11481e-06
-7.29284e-06
-7.8339e-06
-1.05427e-05
-6.38901e-06
-1.40641e-05
-2.40634e-07
-1.74077e-05
1.31323e-05
-1.89291e-05
3.84322e-05
-1.69426e-05
8.20955e-05
-1.13586e-05
0.000149357
7.83711e-06
0.000247254
3.5108e-05
0.000386704
8.16748e-05
0.000587506
0.000146323
0.00083688
0.00025341
0.0011758
0.000379082
0.00159471
0.000539389
0.00212222
0.000783524
0.00274349
0.00103625
0.00350588
0.00139002
0.00434376
0.00174045
0.00532855
0.0021221
0.00652655
0.00257791
0.00770757