/*--------------------------------*- C++ -*----------------------------------*\
  =========                 |
  \\      /  F ield         | OpenFOAM: The Open Source CFD Toolbox
   \\    /   O peration     | Website:  https://openfoam.org
    \\  /    A nd           | Version:  7
     \\/     M anipulation  |
\*---------------------------------------------------------------------------*/
FoamFile
{
    version     2.0;
    format      ascii;
    class       volScalarField;
    location    "0.35";
    object      T;
}
// * * * * * * * * * * * * * * * * * * * * * * * * * * * * * * * * * * * * * //

dimensions      [0 0 0 1 0 0 0];

internalField   nonuniform List<scalar> 
23686
(
0.509941
0.910643
0.997281
0.975489
1.00718
1.01727
1.00286
1.00909
1.00026
1.00127
0.999751
0.999405
0.999891
0.999662
0.999995
0.99997
1.00001
1.00003
1.00001
1.00002
1
1
0.999999
0.999998
1
0.999999
1
1
1
1
1
1
1
1
1
1
1
1
1
1
1
1
1
1
1
1
1
1
1
1
1
1
1
1
1
1
1
1
1
1
1
1
1
1
1
1
1
1
1
1
1
1
1
1
1
1
1
1
1
1
1
1
1
1
1
1
1
1
1
1
1
1
1
1
1
1
1
1
1
1
1
1
1
1
1
1
1
1
1
1
1
1
1
1
1
1
1
1
1
1
1
1
1
1
1
1
1
1
1
1
1
1
1
1
1
1
1
1
1
1
1
1
1
1
1
1
1
1
1
1
1
1
1
1
1
1
1
1
1
1
1
1
1
1
1
1
1
1
1
1
1
1
1
1
1
1
1
1
1
1
1
1
1
1
1
1
1
1
1
1
1
1
1
1
1
1
1
1
1
0.11164
-0.00310636
-0.0003173
5.52317e-05
-1.03083e-05
1.75094e-07
1.75595e-07
-3.20733e-08
1.92317e-09
4.30384e-10
-1.7916e-10
1.21262e-11
4.18815e-12
-1.18778e-12
-1.94693e-13
1.77867e-14
8.15309e-15
5.09228e-16
-9.28553e-17
-1.5427e-17
-3.75065e-19
1.33893e-19
2.04488e-20
1.11959e-21
-7.36042e-23
-1.5895e-23
-1.16009e-24
-1.79677e-26
5.71377e-27
7.69087e-28
5.29253e-29
1.04093e-30
-1.58834e-31
-1.84754e-32
-1.13621e-33
-1.82453e-35
2.64977e-36
3.59422e-37
2.17081e-38
5.74551e-40
-2.17004e-41
-4.03641e-42
-2.39179e-43
-8.01155e-45
5.09059e-47
2.61492e-47
2.11315e-48
1.10474e-49
3.92567e-51
-6.70097e-68
1.33093e-52
9.06049e-51
2.24069e-49
7.09832e-48
-1.9398e-46
4.74771e-45
-1.70276e-43
1.54108e-41
-8.3045e-41
-8.16062e-39
-2.27034e-37
6.54264e-37
1.14922e-35
6.12626e-35
-1.28237e-33
4.04267e-32
2.38722e-31
-2.99506e-30
3.34097e-29
5.62636e-28
-2.19408e-28
7.7213e-26
-3.88962e-25
-7.52715e-24
-2.58805e-23
-1.30329e-22
-1.50042e-21
-8.10143e-21
-5.85997e-20
6.93122e-20
-3.72132e-19
-1.73627e-18
6.02665e-18
-1.1655e-17
4.7025e-17
-1.35729e-16
-2.01987e-16
-6.18635e-17
1.79557e-15
8.8183e-15
3.83353e-14
1.14214e-13
2.96998e-13
6.2143e-13
1.12232e-12
1.83456e-12
2.76094e-12
3.32822e-12
3.1292e-12
3.66244e-12
1
1
1
1
1
1
1
1
1
0.999999
0.999999
0.999999
1
1
1.00001
1.00001
0.999986
0.999994
0.999996
0.99999
1.00001
1
1.00001
1.00001
1.00004
1.00003
0.999998
1.00001
0.999915
0.999944
0.999809
0.999844
0.999875
0.999844
1.00019
1.00008
1.00084
1.00059
1.00151
1.00129
1.00169
1.00167
1.00008
1.00066
0.995202
0.996713
0.985168
0.988121
0.967772
0.972964
0.942514
0.950374
0.908907
0.919476
0.867526
0.880153
0.818223
0.833387
0.760229
0.777735
0.697491
0.715821
0.630772
0.650247
0.561442
0.58147
0.494031
0.513208
0.429458
0.448063
0.365911
0.383956
0.309695
0.325387
0.25885
0.273077
0.212995
0.225811
0.174292
0.185268
0.139786
0.149419
0.11169
0.119468
0.0879759
0.09447
0.0680921
0.0734362
0.0526574
0.0568052
0.0404545
0.0437661
0.0302996
0.0329739
0.0227578
0.024745
0.0169737
0.0185074
0.0124693
0.013675
0.00905981
0.00994931
0.00659252
0.00722917
0.00476854
0.00524858
0.00340057
0.00375824
0.00239571
0.00265329
0.00169264
0.00187396
0.00119106
0.0013224
0.000818994
0.000914159
0.000568072
0.000632812
0.000389105
0.000434736
0.000261673
0.000293331
0.000178639
0.00019976
0.000121375
0.000136064
8.01542e-05
9.03491e-05
5.36806e-05
6.03194e-05
3.58253e-05
4.03206e-05
2.3535e-05
2.6637e-05
1.5312e-05
1.73428e-05
1.00999e-05
1.14022e-05
6.56663e-06
7.44066e-06
4.25511e-06
4.82722e-06
2.69885e-06
3.07217e-06
1.73993e-06
1.97553e-06
1.1218e-06
1.27686e-06
7.01758e-07
8.02759e-07
4.46575e-07
5.09222e-07
2.81028e-07
3.21295e-07
1.7452e-07
1.99862e-07
1.09155e-07
1.2481e-07
6.84459e-08
7.84119e-08
4.16042e-08
4.79007e-08
2.57819e-08
2.95571e-08
1.59218e-08
1.82729e-08
9.66763e-09
1.11408e-08
5.97537e-09
6.88121e-09
3.57862e-09
4.14158e-09
2.18214e-09
2.51705e-09
1.30739e-09
1.51271e-09
7.7049e-10
8.93319e-10
4.63309e-10
5.35411e-10
2.79496e-10
3.23637e-10
1.63046e-10
1.8978e-10
9.6987e-11
1.12609e-10
5.83224e-11
6.79161e-11
3.4796e-11
4.09619e-11
2.06713e-11
2.46053e-11
1.27004e-11
1.52469e-11
7.23945e-12
4.44286e-12
8.73127e-12
2.03245e-52
3.24701e-12
0.0139069
-0.00200416
0.000101507
-3.29732e-06
-3.45329e-06
5.31965e-07
-1.83739e-08
-8.73929e-09
1.99111e-09
-2.0194e-10
-4.37472e-11
1.3583e-11
-4.79477e-13
-6.40661e-13
-2.30804e-14
1.60869e-14
2.81225e-15
-6.48094e-17
-4.59939e-17
-3.61788e-18
1.5603e-19
6.12108e-20
5.57287e-21
6.53056e-23
-4.1344e-23
-4.79893e-24
-2.13642e-25
7.281e-27
2.41213e-27
2.14684e-28
1.00419e-29
-1.9028e-31
-6.21377e-32
-4.86857e-33
-2.03988e-34
3.7622e-36
1.06526e-36
9.73715e-38
4.09417e-39
2.57162e-41
-1.13941e-41
-1.05965e-42
-4.75609e-44
-8.89721e-46
6.75064e-47
8.00199e-48
5.08484e-49
2.22136e-50
-0.00133343
6.61054e-52
4.00492e-12
8.66748e-51
4.21645e-50
-1.95539e-47
4.12966e-46
5.92042e-47
-7.85827e-44
-8.21686e-43
-3.22633e-41
1.34097e-39
4.75481e-38
3.7599e-37
-1.92206e-36
-6.04164e-35
2.39374e-34
-1.91154e-33
-1.53519e-31
3.45121e-31
2.36943e-30
-1.95679e-28
-4.47836e-28
-1.34691e-26
-1.19732e-25
2.52816e-24
1.73377e-23
3.49523e-23
5.45292e-22
3.24543e-21
2.65143e-20
4.6821e-20
-1.02224e-19
1.19948e-18
2.15638e-19
-3.5935e-18
4.03836e-18
2.34883e-17
-1.83334e-16
-1.81676e-16
4.583e-16
4.1978e-15
1.94054e-14
6.68467e-14
1.84628e-13
4.39499e-13
8.64613e-13
1.46269e-12
2.31103e-12
3.13953e-12
3.4382e-12
0.000148593
0.0642368
-2.77265e-05
0.453368
0.000140416
1.57823e-06
-1.07374e-05
1.40746e-06
-1.18994e-08
-2.72923e-08
5.43085e-09
-4.76663e-10
-1.36386e-10
4.04612e-11
-1.20176e-12
-2.22252e-12
-9.21331e-14
5.42256e-14
9.82141e-15
-8.30576e-17
-1.56005e-16
-1.4326e-17
3.95327e-19
2.19049e-19
2.13212e-20
5.04006e-22
-1.40834e-22
-1.83339e-23
-9.24846e-25
1.64392e-26
8.64427e-27
8.01814e-28
4.282e-29
-2.99562e-31
-2.1899e-31
-1.85381e-32
-9.07752e-34
5.43057e-36
3.72654e-36
3.69291e-37
1.76429e-38
2.35701e-40
-3.72232e-41
-4.18304e-42
-2.07851e-43
-4.9205e-45
1.92234e-46
3.11431e-47
2.05454e-48
9.14889e-50
2.85344e-51
4.54956e-50
-1.93025e-47
4.59828e-46
-5.24514e-46
-9.54037e-44
-8.10167e-43
-2.21883e-41
1.59281e-39
4.82608e-38
3.58249e-37
-1.90625e-36
-6.00232e-35
2.54182e-34
-2.75908e-33
-1.66064e-31
2.6979e-31
1.51998e-30
-1.94653e-28
-3.79998e-28
-1.2715e-26
-1.11567e-25
2.58015e-24
1.72122e-23
2.86637e-23
5.40322e-22
3.21297e-21
2.66428e-20
4.88507e-20
-1.1511e-19
1.24756e-18
3.55854e-19
-3.96716e-18
5.82441e-18
2.34048e-17
-2.20092e-16
-2.15497e-16
5.9557e-16
5.24398e-15
2.42156e-14
8.34956e-14
2.2817e-13
5.42841e-13
1.06409e-12
1.80608e-12
2.82798e-12
3.83304e-12
4.15524e-12
9.42707e-51
-1.13434e-07
5.33276e-07
-8.56192e-08
3.79346e-09
1.36108e-09
-4.81101e-10
3.14871e-11
1.33408e-11
-3.56296e-12
-7.05888e-13
5.84415e-14
2.59086e-14
2.10166e-15
-2.97257e-16
-5.70083e-17
-2.05093e-18
4.49441e-19
7.79053e-20
4.58163e-21
-1.68451e-22
-5.58726e-23
-4.66758e-24
-1.13898e-25
1.84869e-26
2.92523e-27
1.99447e-28
5.74428e-30
-5.19885e-31
-7.05998e-32
-4.47333e-33
-1.09293e-34
8.91642e-36
1.24356e-36
8.92587e-38
2.83094e-39
-5.18933e-41
-1.3699e-41
-9.93972e-43
-3.68387e-44
-1.96449e-46
9.53511e-47
8.54507e-48
4.57212e-49
1.69447e-50
-2.16805e-49
4.81267e-48
-9.52523e-47
5.13755e-45
-1.44959e-43
1.58652e-41
-1.37952e-40
-9.01952e-39
-2.30679e-37
8.27159e-37
1.04667e-35
4.71848e-35
-1.17438e-33
4.51689e-32
2.61494e-31
-2.88604e-30
3.52384e-29
5.52984e-28
-5.4258e-28
7.73156e-26
-4.2726e-25
-7.38229e-24
-2.44873e-23
-1.22742e-22
-1.52206e-21
-8.05247e-21
-6.14032e-20
7.39281e-20
-3.87365e-19
-1.84144e-18
6.60608e-18
-1.28643e-17
5.29064e-17
-1.5846e-16
-2.41898e-16
-5.7717e-17
2.24199e-15
1.11118e-14
4.78575e-14
1.41194e-13
3.65453e-13
7.68642e-13
1.3907e-12
2.26296e-12
3.37496e-12
4.05529e-12
3.87458e-12
-0.00528114
-0.00556021
8.46264e-51
0.594883
-0.00160947
0.942444
1.00339
0.979133
1.00791
1.01325
1.00265
1.00761
0.999944
1.00096
0.999656
0.999356
0.999885
0.999649
1
0.999959
1.00002
1.00003
1.00001
1.00002
1
1
0.999999
0.999998
1
0.999999
1
1
1
1
1
1
1
1
1
1
1
1
1
1
1
1
1
1
1
1
1
1
1
1
1
1
1
1
1
1
1
1
1
1
1
1
1
1
1
1
1
1
1
1
1
1
1
1
1
1
1
1
1
1
1
1
1
1
1
1
1
1
1
1
1
1
1
1
1
1
1
1
1
1
1
1
1
1
1
1
1
1
1
1
1
1
1
1
1
1
1
1
1
1
1
1
1
1
1
1
1
1
1
1
1
1
1
1
1
1
1
1
1
1
1
1
1
1
1
1
1
1
1
1
1
1
1
1
1
1
1
1
1
1
1
1
1
1
1
1
1
1
1
1
1
1
1
1
1
1
1
1
1
1
1
1
1
1
1
1
1
1
1
1
1
1
1
1
1
9.12684e-52
0.00261077
0.00023623
0.235597
-1.05643e-05
-3.4329e-06
7.56006e-07
-5.4426e-08
-7.95377e-09
3.37036e-09
-3.45289e-10
-5.25161e-11
2.7064e-11
5.85888e-13
-9.97157e-13
-1.25812e-13
1.15483e-14
3.92779e-15
1.54677e-16
-4.55923e-17
-7.10515e-18
-2.97461e-19
3.913e-20
7.83446e-21
4.78356e-22
-9.89491e-24
-4.84747e-24
-4.10842e-25
-1.65211e-26
8.45761e-28
1.91007e-28
1.42319e-29
4.62096e-31
-2.5725e-32
-4.10126e-33
-3.0213e-34
-9.70253e-36
2.36736e-37
6.28964e-38
4.7866e-39
2.07547e-40
1.0441e-42
-5.8916e-43
-5.7324e-44
-2.83101e-45
-6.64697e-47
1.70391e-48
3.77426e-49
2.24384e-50
-1.66483e-48
-0.00445074
-0.00527208
-0.00421271
7.85092e-52
5.50442e-12
8.48769e-12
-1.31563e-05
-1.11987e-05
0.517419
3.36275e-47
-2.43661e-46
1.02862e-45
-1.04664e-43
2.04338e-41
-1.80406e-40
-1.18035e-38
-3.05494e-37
1.09116e-36
1.04601e-35
7.97188e-35
-1.55341e-33
6.15978e-32
4.46721e-31
-3.87641e-30
4.03971e-29
8.1168e-28
-1.26431e-27
1.05609e-25
-4.49854e-25
-1.04744e-23
-3.93135e-23
-1.61363e-22
-2.28711e-21
-1.13918e-20
-9.99992e-20
7.783e-20
-4.46023e-19
-3.17247e-18
9.76722e-18
-1.71225e-17
8.01174e-17
-2.74137e-16
-3.18157e-16
6.14172e-17
3.8814e-15
1.83744e-14
7.61866e-14
2.17806e-13
5.52595e-13
1.14103e-12
2.01101e-12
3.28478e-12
4.77522e-12
5.62863e-12
4.86597e-12
6.27515e-12
0.0528654
0.185682
0.0254889
7.61748e-05
0.00047359
6.6295e-05
7.89349e-06
1
1
1
1
1
1
0.999999
0.999999
0.999999
0.999999
1
1
1
1.00001
0.999988
0.999994
0.999998
0.99999
1
1
1.00001
1.00001
1.00003
1.00004
0.999986
1.00002
0.99991
0.999945
0.999826
0.999834
0.999914
0.999816
1.00023
1.00004
1.00083
1.00053
1.00149
1.00134
1.00161
1.00195
0.999846
1.0013
0.994698
0.998084
0.984088
0.989756
0.966588
0.975543
0.941817
0.953994
0.908879
0.924755
0.867068
0.885973
0.81839
0.839867
0.761111
0.786116
0.69724
0.723529
0.630633
0.657539
0.562167
0.589677
0.494194
0.520816
0.429859
0.454292
0.367757
0.391649
0.31042
0.331892
0.259017
0.277577
0.214414
0.230892
0.175402
0.189142
0.141408
0.153654
0.112562
0.122612
0.0886255
0.0969091
0.0687397
0.075571
0.0530575
0.0584067
0.0407182
0.0447949
0.0306711
0.0340104
0.0229283
0.025478
0.017069
0.0189766
0.0126764
0.0141125
0.00923309
0.0103617
0.0066076
0.00741709
0.00482259
0.00539859
0.00345954
0.00389087
0.0024357
0.00275375
0.00171751
0.00194115
0.00120958
0.00136497
0.000839788
0.000954727
0.000578877
0.000658107
0.000395884
0.000451174
0.000266769
0.000305399
0.000182184
0.000207939
0.000123396
0.000140679
8.22792e-05
9.44684e-05
5.47071e-05
6.28568e-05
3.63216e-05
4.16844e-05
2.41998e-05
2.77546e-05
1.58079e-05
1.82719e-05
1.02209e-05
1.17915e-05
6.72443e-06
7.75647e-06
4.34199e-06
5.01681e-06
2.76574e-06
3.21332e-06
1.78165e-06
2.06384e-06
1.15186e-06
1.33013e-06
7.26975e-07
8.46862e-07
4.58957e-07
5.33693e-07
2.87316e-07
3.34297e-07
1.79413e-07
2.09377e-07
1.11761e-07
1.30485e-07
7.00146e-08
8.14426e-08
4.312e-08
5.04937e-08
2.64569e-08
3.09994e-08
1.61415e-08
1.8876e-08
1.0018e-08
1.17238e-08
6.16342e-09
7.18696e-09
3.73357e-09
4.39073e-09
2.25575e-09
2.65031e-09
1.34707e-09
1.5855e-09
7.96433e-10
9.42092e-10
4.79163e-10
5.64633e-10
2.88245e-10
3.38388e-10
1.70518e-10
2.01599e-10
1.00166e-10
1.18542e-10
6.03475e-11
7.10143e-11
3.75085e-11
4.38798e-11
2.39111e-11
2.82781e-11
0.759785
1.43128e-50
-0.000422183
0.806072
1.18932e-50
0.000213928
-1.28259e-50
1.03299e-50
6.50613e-07
1.63531e-07
-4.57264e-08
4.65855e-09
5.83379e-10
-2.59343e-10
2.8091e-11
9.91869e-12
-1.45492e-12
-4.31235e-13
-1.19519e-14
9.312e-15
1.0888e-15
-4.31203e-17
-2.1722e-17
-1.79813e-18
2.09575e-20
2.09444e-20
2.26339e-21
5.67152e-23
-1.06311e-23
-1.58949e-24
-9.4192e-26
-7.75492e-28
5.18001e-28
5.68451e-29
3.0456e-30
1.17053e-32
-1.23551e-32
-1.26016e-33
-5.92613e-35
-8.36956e-37
1.68582e-37
1.86682e-38
1.07209e-39
2.93506e-41
-1.29327e-42
-1.94513e-43
-1.39393e-44
-4.82081e-46
-3.80796e-48
1.02865e-48
1.05239e-49
-1.64936e-48
-2.10197e-07
-2.21046e-47
6.44538e-46
-1.61816e-45
-1.51318e-43
-2.84952e-43
-2.70077e-41
2.04614e-39
5.53589e-38
5.94501e-37
-2.441e-36
-8.18478e-35
2.67938e-34
-1.84704e-33
-2.37021e-31
3.34696e-32
3.85618e-30
-2.44651e-28
-7.72304e-28
-1.26228e-26
-1.93644e-25
3.37175e-24
2.67433e-23
3.91344e-23
7.32536e-22
4.68179e-21
3.76381e-20
9.94113e-20
-2.23769e-19
1.8306e-18
1.79796e-18
-9.21996e-18
1.89638e-17
-4.56504e-19
-3.05339e-16
-2.47522e-16
1.19905e-15
8.64694e-15
3.89473e-14
1.31596e-13
3.47313e-13
8.05602e-13
1.54351e-12
2.63149e-12
4.00664e-12
5.33308e-12
5.73385e-12
1.6168e-06
4.80641e-12
4.75405e-50
6.17762e-11
1.515e-11
-2.75295e-05
-1.90667e-10
6.63955e-12
5.62295e-12
3.84749e-12
2.32629e-12
1.31658e-12
6.33899e-13
2.47757e-13
8.49269e-14
2.03802e-14
4.14004e-15
-2.41873e-17
-3.82386e-16
-3.03712e-16
9.24e-17
-2.06302e-17
1.139e-17
-3.5356e-18
-5.64303e-19
1.03178e-19
-1.12048e-19
-1.33318e-20
-2.59214e-21
-1.88484e-22
-4.06449e-23
-1.22765e-23
-6.50842e-25
1.22664e-25
-1.51767e-27
8.97586e-28
5.50946e-29
-4.32755e-30
4.94824e-31
7.82168e-32
-1.78914e-33
5.67944e-35
1.36592e-35
1.56886e-36
-3.64463e-37
-1.4752e-38
-2.79916e-40
2.49685e-41
-1.83284e-43
5.32577e-45
9.70152e-50
1.17596e-48
3.1334e-48
-3.12522e-46
-1.14801e-44
-1.86367e-43
-1.79494e-42
1.20262e-41
8.07188e-40
1.66603e-38
1.97335e-37
2.48292e-37
-4.01828e-35
-1.11389e-33
-1.36014e-32
-4.92032e-32
2.04535e-30
5.03499e-29
5.94367e-28
1.43442e-27
-6.79306e-26
-1.48797e-24
-1.33406e-23
-1.41146e-24
1.84721e-21
2.3771e-20
8.80465e-20
-1.2601e-18
-2.27756e-17
-1.03263e-16
7.04863e-16
1.1341e-14
1.84712e-14
-4.09375e-13
-2.52144e-12
6.6697e-12
6.26048e-12
4.69551e-12
3.0584e-12
1.78473e-12
9.24539e-13
3.96878e-13
1.48323e-13
4.30569e-14
9.38191e-15
1.17244e-15
-3.27797e-16
-3.55568e-16
1.42433e-17
1.82571e-17
-9.26247e-18
1.56803e-18
2.11245e-18
-2.31081e-19
1.01571e-19
4.46305e-20
5.31064e-21
8.67907e-22
4.05693e-23
2.9222e-23
4.15991e-24
-1.91163e-25
-1.71654e-26
-6.34435e-28
-2.97163e-28
2.25173e-30
1.91001e-31
-2.82198e-31
-4.32193e-33
4.07587e-34
-9.27515e-35
-2.87571e-36
5.78369e-37
7.09682e-38
2.75113e-39
-2.4311e-41
-2.74538e-47
3.76982e-49
2.9384e-48
-3.05704e-47
-2.08783e-45
-5.10445e-44
-6.25356e-43
-2.6363e-42
1.36008e-40
3.96919e-39
6.17212e-38
4.64423e-37
-5.09577e-36
-2.34774e-34
-3.97454e-33
-3.65718e-32
1.80423e-31
1.11085e-29
1.87499e-28
1.35001e-27
-7.63215e-27
-3.33329e-25
-5.09836e-24
-2.50686e-23
2.77337e-22
7.51901e-21
5.55407e-20
-6.9927e-20
-6.14598e-18
-5.89373e-17
-2.99041e-17
3.5519e-15
2.27129e-14
-7.12444e-14
-1.20822e-12
-2.64804e-12
2.9905e-11
3.53821e-11
-6.03138e-10
2.30535e-09
5.67107e-09
-1.04251e-07
5.89977e-07
8.0169e-09
-3.09127e-08
-3.09557e-08
-4.73317e-10
-3.95223e-47
1.41663e-47
8.1615e-46
-1.87877e-45
-1.82385e-43
-9.05921e-43
0.000277457
0.982244
1.00991
1.00371
1.00638
1.01397
1.00125
1.00491
0.999712
1.00021
0.999713
0.999455
0.999923
0.999743
1.00001
0.999978
1.00002
1.00003
1
1.00001
0.999999
1
0.999999
0.999998
1
0.999999
1
1
1
1
1
1
1
1
1
1
1
1
1
1
1
1
1
1
1
1
1
1
1
1
1
1
1
1
1
1
1
1
1
1
1
1
1
1
1
1
1
1
1
1
1
1
1
1
1
1
1
1
1
1
1
1
1
1
1
1
1
1
1
1
1
1
1
1
1
1
1
1
1
1
1
1
1
1
1
1
1
1
1
1
1
1
1
1
1
1
1
1
1
1
1
1
1
1
1
1
1
1
1
1
1
1
1
1
1
1
1
1
1
1
1
1
1
1
1
1
1
1
1
1
1
1
1
1
1
1
1
1
1
1
1
1
1
1
1
1
1
1
1
1
1
1
1
1
1
1
1
1
1
1
1
1
1
1
1
1
1
1
1
1
1
2.22775e-43
-1.11586e-05
-4.8137e-11
1.15723e-45
1.86119e-11
3.37773e-11
-4.26868e-09
3.09869e-09
1.07325e-06
6.72967e-08
-4.39457e-08
-2.73453e-08
5.67897e-09
7.58652e-09
7.87745e-09
8.99954e-12
1.11303e-11
-2.95923e-10
-2.11629e-10
-1.11768e-49
3.70059e-11
7.49562e-11
9.06173e-12
2.31507e-12
-8.02595e-13
-1.5288e-13
3.42317e-15
3.52724e-15
3.4581e-16
-1.25697e-17
-5.69469e-18
-4.94639e-19
-3.94172e-21
4.24174e-21
5.21122e-22
2.14509e-23
-1.47674e-24
-2.93807e-25
-2.15453e-26
-5.99304e-28
6.50641e-29
9.35994e-30
6.31478e-31
1.26757e-32
-1.41832e-33
-2.04596e-34
-1.21738e-35
-3.18787e-37
1.56602e-38
2.75653e-39
1.77706e-40
6.09272e-42
-3.76531e-44
-2.34693e-44
-1.81821e-45
-8.23799e-47
-2.51543e-48
-1.67024e-05
-2.49786e-05
-2.71126e-43
-4.50505e-45
6.17752e-47
1.46877e-45
-3.8114e-45
-3.26238e-43
-6.4504e-44
-2.08908e-43
-6.73341e-43
-2.61934e-47
2.98101e-47
-3.33986e-41
3.60976e-39
8.08792e-38
9.05529e-37
-4.01183e-36
-1.20521e-34
4.90198e-34
-3.07704e-33
-4.05765e-31
-3.08765e-31
5.62832e-30
-3.71497e-28
-1.26315e-27
-1.55099e-26
-3.25079e-25
5.44761e-24
4.10406e-23
6.04708e-23
1.16493e-21
7.87604e-21
6.09812e-20
2.00596e-19
-4.09824e-19
3.038e-18
4.78267e-18
-2.00025e-17
4.38059e-17
-4.62784e-17
-4.75012e-16
-3.57569e-16
2.33302e-15
1.55052e-14
7.01415e-14
2.27532e-13
6.05427e-13
1.3725e-12
2.58008e-12
4.35128e-12
6.67256e-12
8.61547e-12
1.06211e-11
-1.63036e-06
-7.78283e-06
1.0705e-06
1
1
1
1
1
1
1
0.999999
1
1
1
1
0.999993
0.999997
0.999998
0.999993
0.999999
0.999998
1.00001
1
1.00003
1.00003
0.999994
1.00002
0.999934
0.999962
0.99985
0.999859
0.999901
0.999817
1.00015
0.999968
1.00066
1.00039
1.00134
1.00121
1.00161
1.00194
1.00019
1.00159
0.99575
0.998828
0.985975
0.991651
0.969859
0.978353
0.947136
0.958777
0.915799
0.931068
0.875647
0.894156
0.82808
0.84858
0.772008
0.796483
0.709182
0.735262
0.643344
0.670591
0.574801
0.602439
0.507071
0.533925
0.441952
0.467186
0.378855
0.403012
0.321485
0.343287
0.26832
0.287653
0.222316
0.239132
0.181938
0.19606
0.147433
0.159887
0.11767
0.127976
0.0928442
0.101432
0.0721192
0.0791741
0.0558999
0.0614217
0.0427572
0.0471352
0.0321701
0.0356735
0.0242457
0.0268788
0.0180936
0.0201102
0.0133927
0.014922
0.00979141
0.0109626
0.00705107
0.00792294
0.00511864
0.00572867
0.00367624
0.00413827
0.00259123
0.00292782
0.00183877
0.00207617
0.00128541
0.00145119
0.000899363
0.00101997
0.000620216
0.000703819
0.000424806
0.000483773
0.000287175
0.000328756
0.000196373
0.000223952
0.000132359
0.000151439
8.7988e-05
0.000101131
5.9116e-05
6.77863e-05
3.92998e-05
4.51394e-05
2.59975e-05
2.98867e-05
1.69963e-05
1.95899e-05
1.11349e-05
1.28607e-05
7.24279e-06
8.35963e-06
4.69384e-06
5.43402e-06
2.99917e-06
3.48253e-06
1.9449e-06
2.25275e-06
1.23949e-06
1.43303e-06
7.91279e-07
9.20416e-07
4.98784e-07
5.79435e-07
3.12308e-07
3.64287e-07
1.94067e-07
2.26975e-07
1.21798e-07
1.42154e-07
7.62245e-08
8.88302e-08
4.65737e-08
5.46395e-08
2.89493e-08
3.38891e-08
1.75939e-08
2.06439e-08
1.09143e-08
1.2782e-08
6.64614e-09
7.77202e-09
4.07658e-09
4.78331e-09
2.46451e-09
2.89136e-09
1.46566e-09
1.72497e-09
8.80265e-10
1.03658e-09
5.29766e-10
6.23895e-10
3.16138e-10
3.72556e-10
1.85881e-10
2.2048e-10
1.1081e-10
1.30984e-10
6.71406e-11
7.91579e-11
4.11323e-11
4.81992e-11
3.09755e-05
-1.14006e-05
8.27632e-12
-0.00459307
-4.85112e-10
-7.22833e-10
-0.000867394
7.78079e-05
1.22732e-11
2.52689e-52
0.572277
-1.05758e-50
2.36996e-45
0.872928
2.01873e-11
1.82057e-09
2.81495e-10
6.43881e-07
-8.13452e-08
-2.96737e-46
1.50016e-06
4.37191e-11
9.75478e-12
1.32333e-11
-6.00561e-13
-4.40572e-13
-3.1202e-14
6.70075e-15
1.30594e-15
4.54769e-17
-1.24111e-17
-1.98427e-18
-9.11733e-20
6.87679e-21
1.66427e-21
1.27408e-22
5.54492e-25
-7.94628e-25
-8.88271e-26
-4.4712e-27
4.46706e-29
2.78909e-29
2.70204e-30
1.14678e-31
-1.34091e-33
-6.39338e-34
-5.36614e-35
-2.33018e-36
-6.77907e-39
8.15678e-39
7.41423e-40
3.69262e-41
6.83294e-43
-5.39793e-44
-7.12626e-45
-4.23002e-46
-1.59409e-47
4.00208e-11
-4.10017e-48
1.09512e-11
0.0179633
-0.003371
-4.96819e-45
1.66054e-46
-9.78262e-51
0.921152
-5.15543e-40
-3.51399e-40
3.2345e-41
4.77364e-39
4.00171e-41
-1.85465e-38
-4.62583e-37
2.12305e-36
1.20121e-35
9.18147e-35
-2.33959e-33
9.76165e-32
8.13269e-31
-5.13697e-30
6.52197e-29
1.2549e-27
-2.81334e-27
1.59017e-25
-6.66403e-25
-1.64854e-23
-6.55395e-23
-2.22094e-22
-3.68573e-21
-1.86639e-20
-1.69521e-19
8.4743e-20
-5.69072e-19
-5.9516e-18
1.51953e-17
-2.43606e-17
1.29188e-16
-5.06075e-16
-4.88101e-16
2.44379e-16
7.12159e-15
3.34612e-14
1.33824e-13
3.79221e-13
9.5662e-13
1.92301e-12
3.35736e-12
5.44736e-12
7.86764e-12
0.000195338
-2.2795e-38
2.64254e-11
0.0738136
0.000138854
1.01331e-11
7.79734e-12
5.06241e-12
2.97799e-12
1.578e-12
6.86423e-13
2.57157e-13
7.68883e-14
1.66661e-14
2.30329e-15
-4.9021e-16
-5.59265e-16
-2.34054e-17
4.51041e-17
-2.08337e-17
4.60372e-18
3.55775e-18
-4.33114e-19
2.11331e-19
7.22604e-20
8.91212e-21
1.37944e-21
6.12172e-23
4.5627e-23
6.59146e-24
-3.27323e-25
-2.23606e-26
-9.94762e-28
-4.57781e-28
2.8189e-30
-1.20831e-31
-4.80075e-31
-1.11942e-47
-3.42325e-46
-6.61371e-45
-6.7577e-44
1.82429e-43
2.67972e-41
6.39424e-40
8.52183e-39
2.9238e-38
-1.53568e-36
-4.49766e-35
-6.4246e-34
-3.43931e-33
6.98202e-32
2.26892e-30
2.86945e-29
1.41347e-28
-3.0203e-27
-7.79724e-26
-8.74857e-25
-2.50523e-24
9.33612e-23
1.63346e-21
1.0706e-20
-4.8308e-20
-1.78323e-18
-1.55587e-17
-3.11358e-18
1.17801e-15
9.26318e-15
-7.25776e-15
-1.10397e-07
-7.08243e-10
9.19343e-12
6.35127e-12
3.89753e-12
2.22026e-12
1.09153e-12
4.29546e-13
1.49623e-13
3.648e-14
7.59225e-15
1.12641e-16
-5.89496e-16
-5.58016e-16
1.51877e-16
-3.04525e-17
1.79994e-17
-6.64665e-18
-7.63646e-19
1.25616e-19
-1.91185e-19
-2.14291e-20
-4.19404e-21
-2.59878e-22
-6.8435e-23
-1.90656e-23
-1.0002e-24
1.85549e-25
-3.50427e-27
1.3946e-27
8.7164e-29
-5.907e-30
8.87234e-31
-0.00678227
-0.00317571
-0.00995506
1.26144e-31
-2.7713e-33
4.87826e-35
1.58398e-35
3.03156e-36
-5.45025e-37
-6.09995e-47
-1.56662e-45
-2.3929e-44
-1.25136e-43
3.66097e-42
1.43137e-40
2.59271e-39
2.1938e-38
-1.37005e-37
-9.39496e-36
-1.86989e-34
-1.76194e-33
2.00808e-33
4.71927e-31
8.63127e-30
8.06219e-29
-1.57474e-28
-1.67024e-26
-2.86297e-25
-2.07063e-24
1.00911e-23
4.54454e-22
4.78021e-21
1.09185e-20
-3.62612e-19
-5.98578e-18
-2.83737e-17
2.32006e-16
3.76513e-15
1.28924e-14
-1.19081e-13
-1.07452e-12
3.7541e-14
-1.8017e-49
0.64697
-4.59273e-48
3.95634e-07
-1.1547e-07
-1.09348e-49
-4.52069e-13
-1.58898e-12
1.00972e-11
-1.35894e-48
-3.45521e-47
-6.76716e-33
7.37699e-34
-1.34042e-34
-4.7198e-36
-2.36391e-41
8.5761e-37
1.02338e-37
0.000456489
-8.05761e-08
1.37479e-11
-3.91937e-33
1.00293
1.00828
1.01211
1.00307
1.00796
1.00022
1.00185
0.999626
0.999683
0.999808
0.999572
0.999981
0.999882
1.00002
1.00002
1.00001
1.00003
1
1.00001
0.999998
0.999999
0.999999
0.999998
1
0.999999
1
1
1
1
1
1
1
1
1
1
1
1
1
1
1
1
1
1
1
1
1
1
1
1
1
1
1
1
1
1
1
1
1
1
1
1
1
1
1
1
1
1
1
1
1
1
1
1
1
1
1
1
1
1
1
1
1
1
1
1
1
1
1
1
1
1
1
1
1
1
1
1
1
1
1
1
1
1
1
1
1
1
1
1
1
1
1
1
1
1
1
1
1
1
1
1
1
1
1
1
1
1
1
1
1
1
1
1
1
1
1
1
1
1
1
1
1
1
1
1
1
1
1
1
1
1
1
1
1
1
1
1
1
1
1
1
1
1
1
1
1
1
1
1
1
1
1
1
1
1
1
1
1
1
1
1
1
1
1
0.00905362
1
-3.37553e-49
0.113514
-7.95366e-48
1.60489e-11
0.228572
6.0355e-09
-3.51391e-10
5.12463e-07
-3.11511e-08
-1.87373e-44
-6.19892e-10
-8.74801e-10
1.22304e-06
1.80483e-06
1.3916e-06
-1.74874e-47
2.89036e-11
3.76418e-12
7.96635e-09
2.77674e-07
-1.12367e-07
-3.95025e-13
-4.76122e-14
1.60312e-15
9.80534e-16
9.49873e-17
-1.15403e-18
-1.18712e-18
-1.14643e-19
-2.17609e-21
7.30214e-22
1.02423e-22
5.45149e-24
-8.852e-26
-4.20923e-26
-3.92201e-27
-1.41496e-28
4.9833e-30
1.39227e-30
1.04708e-31
3.75203e-33
-1.06486e-34
-2.50167e-35
-1.77956e-36
-6.99362e-38
5.43696e-40
3.33332e-40
2.72611e-41
1.23326e-42
2.06452e-44
-1.76608e-45
2.58834e-11
5.80399e-11
1.45232e-11
-0.00734108
1.07045e-46
1.34488e-36
1.30879e-11
5.19551e-41
5.95552e-39
-0.000126956
-1.89779e-46
1.13633e-37
-6.58359e-37
-7.60644e-37
1.23178e-36
-7.28334e-36
-1.66241e-34
9.73145e-34
-3.59897e-33
-4.41707e-33
-8.44225e-33
-5.574e-47
-4.67205e-47
-6.55132e-31
-1.05185e-30
6.63692e-30
-5.76815e-28
-1.92461e-27
-1.8108e-26
-5.48699e-25
8.36948e-24
6.46742e-23
9.32709e-23
1.81943e-21
1.32408e-20
1.01624e-19
4.00454e-19
-7.08553e-19
4.9362e-18
1.10404e-17
-4.08218e-17
9.30736e-17
-1.52958e-16
-7.1042e-16
-5.00366e-16
4.46992e-15
2.77242e-14
1.23473e-13
3.97092e-13
1.04127e-12
2.34191e-12
4.31796e-12
7.27632e-12
1.09362e-11
-1.0779e-44
-1.7372e-44
-2.80111e-38
-3.48007e-38
1.34959e-37
1
0.0159342
1
1
1
0.999999
1
0.999999
1
1
0.999997
1
0.999996
0.999993
0.999996
0.999995
1.00001
0.999999
1.00003
1.00003
1
1.00003
0.999956
0.999984
0.999866
0.999886
0.999874
0.999813
1.00005
0.999894
1.00051
1.00026
1.00125
1.00108
1.00171
1.00194
1.00073
1.00191
0.996923
0.999707
0.988224
0.993582
0.973721
0.981748
0.952885
0.964043
0.922796
0.938083
0.884557
0.902771
0.837907
0.859584
0.783028
0.808037
0.722036
0.748751
0.657056
0.685289
0.588681
0.616819
0.521381
0.548967
0.455053
0.481911
0.39087
0.416071
0.333458
0.355539
0.27841
0.299391
0.230754
0.248235
0.189295
0.20464
0.153585
0.166975
0.122894
0.13407
0.0975091
0.106789
0.0757054
0.0833655
0.0588138
0.0647268
0.0450764
0.0499166
0.0339427
0.0377209
0.0257424
0.0285014
0.0192289
0.0214431
0.0141791
0.0158618
0.0104427
0.0117196
0.00753822
0.00851615
0.00544943
0.00611718
0.00393284
0.00443401
0.00277984
0.0031564
0.00196594
0.00222311
0.00137379
0.00156032
0.000960616
0.00109471
0.000662584
0.000756381
0.000458076
0.000523584
0.000309907
0.000356506
0.000211939
0.000242335
0.000143468
0.000165131
9.52756e-05
0.000109842
6.44655e-05
7.38054e-05
4.27909e-05
4.93967e-05
2.80214e-05
3.24115e-05
1.84349e-05
2.13428e-05
1.21335e-05
1.4083e-05
7.8699e-06
9.13812e-06
5.13902e-06
5.96968e-06
3.2812e-06
3.83133e-06
2.12436e-06
2.46342e-06
1.3489e-06
1.57236e-06
8.55598e-07
9.99328e-07
5.4138e-07
6.32704e-07
3.42843e-07
4.01509e-07
2.13037e-07
2.49628e-07
1.34767e-07
1.57757e-07
8.34984e-08
9.82775e-08
5.10039e-08
6.00834e-08
3.21262e-08
3.75992e-08
1.94825e-08
2.30055e-08
1.19579e-08
1.40304e-08
7.26833e-09
8.56189e-09
4.44064e-09
5.24545e-09
2.6722e-09
3.15385e-09
1.62114e-09
1.92067e-09
9.57685e-10
1.13746e-09
5.8442e-10
6.90393e-10
3.50802e-10
4.17558e-10
2.07946e-10
2.47336e-10
1.25122e-10
1.48074e-10
7.66436e-11
9.13735e-11
4.60719e-11
5.53196e-11
0.000126287
0.000292139
0.000347158
0.000322972
0.756643
1.53928e-31
-7.65074e-31
-4.24029e-46
-1.2849e-44
-3.9831e-11
-9.78332e-10
1.4119e-11
1.68371e-11
1.75022e-11
1.26186e-11
1.63053e-11
2.09397e-45
4.40575e-46
-6.11477e-40
7.4146e-39
-2.68843e-47
-3.71454e-47
6.55944e-47
-5.75919e-13
-8.76547e-13
-0.0027234
-0.00153449
2.6469e-45
-1.6675e-46
-9.28498e-48
3.17177e-44
-5.515e-43
-4.4753e-43
1.8831e-11
-3.07817e-10
-7.50732e-11
-1.94822e-25
-9.66824e-26
-1.8221e-05
3.0202e-11
2.58987e-09
8.3748e-22
3.08841e-22
4.37393e-11
9.47298e-09
3.45134e-11
1.33998e-11
-9.28731e-20
-2.34307e-20
1.48689e-11
-4.13326e-18
-2.38206e-18
1.23013e-11
9.07738e-14
-1.58771e-13
-7.47659e-15
2.01665e-15
3.50627e-16
1.59394e-17
-2.96784e-18
-4.14292e-19
-1.43812e-20
9.59346e-22
3.07292e-22
2.62693e-23
6.71398e-25
-1.12835e-25
-1.38322e-26
-8.45633e-28
-9.92624e-30
3.69384e-30
4.11714e-31
2.24131e-32
2.75644e-34
-6.89767e-35
-6.97862e-36
-4.01143e-37
-8.12184e-39
7.33998e-40
1.0217e-40
6.36935e-42
1.93884e-43
-1.23013e-45
-5.232e-12
-6.75936e-46
1.58893e-11
7.26196e-17
-3.40509e-20
-2.92893e-20
-8.57018e-13
-4.55531e-13
1.02373e-15
3.80246e-15
2.79101e-11
0.935175
1.59872e-42
8.0832e-43
6.38998e-41
-0.00740285
7.02828e-09
0.96961
1.96195e-31
-6.37708e-46
0.80381
-4.08073e-41
4.14804e-36
8.92721e-36
8.07246e-35
1.49073e-30
1.3516e-30
0.0569193
-7.89612e-31
0.202537
-6.78288e-30
9.14106e-29
1.86053e-27
-5.75272e-27
2.24178e-25
-9.38935e-25
-2.60395e-23
-1.08498e-22
-2.69349e-22
-5.83308e-21
1.19391e-19
-2.84836e-19
5.37119e-20
-7.04873e-19
-1.03106e-17
2.21942e-17
-3.11041e-17
2.02151e-16
-8.73892e-16
-7.37977e-16
6.69637e-16
1.28936e-14
5.9299e-14
2.3162e-13
6.59023e-13
1.61693e-12
3.23059e-12
5.57157e-12
8.99474e-12
1.28463e-09
-7.69842e-06
-2.00723e-05
-3.86754e-06
-1.70696e-43
7.04811e-05
3.34838e-06
0.266977
1.27961e-11
8.43934e-12
5.00687e-12
2.71249e-12
1.18848e-12
4.49529e-13
1.37623e-13
3.03e-14
4.48804e-15
-7.14049e-16
-8.54333e-16
-1.31662e-16
9.82939e-17
-4.36447e-17
1.12974e-17
5.7397e-18
-7.6966e-19
1.49146e-20
2.13091e-21
-3.73873e-45
1.17566e-43
5.04208e-42
9.09696e-41
1.7531e-25
8.97891e-40
-2.51258e-39
-3.00672e-37
-6.07881e-36
-7.4685e-35
-5.31502e-35
1.63216e-32
3.56118e-31
3.92785e-30
3.92942e-30
-6.00711e-28
1.0478e-11
6.46417e-12
3.73981e-12
1.85139e-12
7.45365e-13
2.60794e-13
6.51487e-14
1.37071e-14
4.48842e-16
-8.96222e-16
-9.81994e-16
2.41101e-16
-4.109e-17
2.71196e-17
-1.16787e-17
-9.75397e-19
1.12945e-19
-0.000567358
-0.00980062
-3.25627e-19
-6.70643e-21
-3.29419e-22
-1.12657e-22
-2.97591e-23
-1.45073e-24
2.68153e-25
6.08805e-18
-7.34446e-27
2.05916e-27
1.27778e-28
1.19274e-35
-2.25217e-41
5.84077e-36
-1.91622e-45
6.34082e-45
8.86383e-43
2.2803e-41
3.23887e-40
1.64286e-39
-4.3689e-38
-1.4508e-36
-2.3593e-35
-1.65428e-34
2.11794e-33
8.38093e-32
1.32306e-30
8.27555e-30
-8.01811e-29
-3.25107e-27
3.22528e-16
2.54167e-15
-6.93986e-28
9.2068e-23
-4.21181e-26
1.91832e-12
3.91123e-22
-9.64157e-16
-1.21754e-18
-1.50711e-13
-3.60765e-14
-3.81141e-19
1.61641e-21
2.08417e-23
3.69915e-24
-1.26758e-26
8.44096e-23
7.18859e-23
1.01527e-23
-5.54125e-25
-2.6224e-26
-1.45508e-27
2.04406e-30
1.3545e-33
-1.88974e-34
-8.2161e-36
-8.69743e-40
-8.51059e-36
-8.05435e-30
4.2316e-19
-2.2921e-05
1.37579e-11
0.00024464
1.00755
1.00503
1.00848
1.00124
1.00397
0.999701
1.00032
0.999652
0.999416
0.999889
0.99968
1.00001
0.999951
1.00002
1.00003
1.00001
1.00002
1
1
0.999999
0.999999
1
0.999999
1
1
1
1
1
1
1
1
1
1
1
1
1
1
1
1
1
1
1
1
1
1
1
1
1
1
1
1
1
1
1
1
1
1
1
1
1
1
1
1
1
1
1
1
1
1
1
1
1
1
1
1
1
1
1
1
1
1
1
1
1
1
1
1
1
1
1
1
1
1
1
1
1
1
1
1
1
1
1
1
1
1
1
1
1
1
1
1
1
1
1
1
1
1
1
1
1
1
1
1
1
1
1
1
1
1
1
1
1
1
1
1
1
1
1
1
1
1
1
1
1
1
1
1
1
1
1
1
1
1
1
1
1
1
1
1
1
1
1
1
1
1
1
1
1
1
1
1
1
1
1
1
1
1
1
1
-2.30619e-20
-2.51733e-10
-7.85842e-43
9.82153e-13
1.62374e-43
-1.25732e-47
-1.105e-35
-1.05605e-26
-3.42434e-08
2.48413e-31
2.54427e-27
-1.45042e-26
-8.20368e-22