/*--------------------------------*- C++ -*----------------------------------*\
  =========                 |
  \\      /  F ield         | OpenFOAM: The Open Source CFD Toolbox
   \\    /   O peration     | Website:  https://openfoam.org
    \\  /    A nd           | Version:  7
     \\/     M anipulation  |
\*---------------------------------------------------------------------------*/
FoamFile
{
    version     2.0;
    format      ascii;
    class       volScalarField;
    location    "0.2";
    object      T;
}
// * * * * * * * * * * * * * * * * * * * * * * * * * * * * * * * * * * * * * //

dimensions      [0 0 0 1 0 0 0];

internalField   nonuniform List<scalar> 
2500
(
0.500001
0.0669129
-0.0353248
-0.0277158
-0.00788271
0.00118166
0.00229448
0.00106377
0.000115169
-0.000177953
-0.000145433
-5.90202e-05
-9.69539e-06
4.94121e-06
5.00998e-06
2.42088e-06
7.5597e-07
1.15553e-07
-3.51871e-08
-3.74991e-08
-1.84954e-08
-6.60312e-09
-1.76793e-09
-2.89733e-10
2.94177e-11
5.05732e-11
2.71522e-11
1.0767e-11
3.52422e-12
9.62481e-13
2.04235e-13
2.16369e-14
-8.18438e-15
-7.09576e-15
-3.39591e-15
-1.30599e-15
-4.36756e-16
-1.29654e-16
-3.38135e-17
-7.31965e-18
-1.03412e-18
9.93847e-20
1.59033e-19
8.45633e-20
3.47618e-20
1.24683e-20
4.05702e-21
1.21291e-21
3.32857e-22
6.5666e-23
0.933083
0.49999
0.144846
-0.0138415
-0.0411642
-0.0231632
-0.00527862
0.00205857
0.00261641
0.00126726
0.000256657
-0.000104891
-0.000124716
-6.32765e-05
-1.91367e-05
-1.67128e-06
1.99765e-06
1.52149e-06
6.67876e-07
2.06586e-07
3.95794e-08
-1.94331e-09
-6.04968e-09
-3.44292e-09
-1.37868e-09
-4.39096e-10
-1.09895e-10
-1.76247e-11
1.37287e-12
2.71595e-12
1.48088e-12
6.0071e-13
2.05e-13
6.04846e-14
1.51267e-14
2.8808e-15
1.92352e-16
-1.73644e-16
-1.2233e-16
-5.55052e-17
-2.09257e-17
-6.98648e-18
-2.10581e-18
-5.70986e-19
-1.35033e-19
-2.50792e-20
-1.91775e-21
1.25596e-21
9.21447e-22
4.3784e-22
1.03531
0.855193
0.500052
0.182482
0.00820048
-0.0423293
-0.033263
-0.01314
-0.00101056
0.00250466
0.00201164
0.000851336
0.000166301
-5.44641e-05
-6.72122e-05
-3.49096e-05
-1.17415e-05
-2.16062e-06
3.43017e-07
5.15106e-07
2.74297e-07
1.03073e-07
2.91144e-08
5.30884e-09
-2.09676e-10
-7.42126e-10
-4.25826e-10
-1.74512e-10
-5.84263e-11
-1.62418e-11
-3.50029e-12
-3.79024e-13
1.40307e-13
1.23523e-13
5.94624e-14
2.29135e-14
7.64708e-15
2.25224e-15
5.76495e-16
1.19092e-16
1.37926e-17
-3.52803e-18
-3.44872e-18
-1.70419e-18
-6.76621e-19
-2.36572e-19
-7.50856e-20
-2.17922e-20
-5.73979e-21
-1.01038e-21
1.02772
1.01398
0.817492
0.49967
0.206201
0.0272381
-0.0381846
-0.038533
-0.0198318
-0.00521394
0.000940967
0.00187976
0.0011384
0.000417452
7.20851e-05
-2.48132e-05
-2.81678e-05
-1.43913e-05
-5.05155e-06
-1.17158e-06
-5.26452e-08
1.1992e-07
8.09496e-08
3.51771e-08
1.18933e-08
3.14872e-09
5.51194e-10
-2.12256e-11
-7.44229e-11
-4.27924e-11
-1.78109e-11
-6.16381e-12
-1.82491e-12
-4.50373e-13
-8.05262e-14
-1.77974e-15
7.20062e-15
4.49826e-15
1.96484e-15
7.22959e-16
2.35624e-16
6.88142e-17
1.7752e-17
3.81084e-18
5.31432e-19
-5.51854e-20
-8.4394e-20
-4.48191e-20
-1.84826e-20
-6.32802e-21
1.00792
1.04125
0.991483
0.792935
0.499792
0.225293
0.0468302
-0.0285163
-0.0380481
-0.0233307
-0.00869068
-0.00109701
0.00109587
0.0010064
0.000493585
0.000158093
2.35792e-05
-9.3231e-06
-9.56357e-06
-4.80351e-06
-1.74183e-06
-4.62868e-07
-6.65599e-08
1.6324e-08
1.82526e-08
9.33858e-09
3.61768e-09
1.14788e-09
2.93429e-10
5.11223e-11
-1.17978e-12
-6.28954e-12
-3.69409e-12
-1.56932e-12
-5.59743e-13
-1.73967e-13
-4.6849e-14
-1.03013e-14
-1.40488e-15
2.02971e-16
2.63917e-16
1.37959e-16
5.63218e-17
2.00145e-17
6.40402e-18
1.85801e-18
4.82213e-19
1.06502e-19
1.67781e-20
-2.33751e-21
0.998903
1.02295
1.04174
0.973114
0.776792
0.501271
0.241048
0.0650787
-0.0159549
-0.0326903
-0.0228207
-0.0101047
-0.00257931
0.000192417
0.000631855
0.00040508
0.000169617
4.90836e-05
6.70252e-06
-2.7435e-06
-2.70585e-06
-1.36296e-06
-5.12941e-07
-1.5078e-07
-3.10928e-08
-1.13412e-09
2.99878e-09
1.99504e-09
8.89326e-10
3.22297e-10
9.87272e-11
2.49475e-11
4.48006e-12
3.77109e-14
-4.57238e-13
-2.82417e-13
-1.23511e-13
-4.54472e-14
-1.47301e-14
-4.23289e-15
-1.05096e-15
-2.03953e-16
-1.67349e-17
1.04152e-17
7.93397e-18
3.72953e-18
1.45261e-18
5.03362e-19
1.59167e-19
3.97592e-20
0.997843
1.00462
1.03233
1.04086
0.960005
0.761122
0.492987
0.243531
0.0750615
-0.00458491
-0.0245339
-0.019028
-0.00936275
-0.00308806
-0.000438985
0.000248675
0.000248515
0.000129804
4.91169e-05
1.34817e-05
1.88127e-06
-6.27511e-07
-6.56361e-07
-3.39735e-07
-1.33533e-07
-4.26052e-08
-1.06751e-08
-1.62742e-09
2.33589e-10
3.33779e-10
1.80922e-10
7.46093e-11
2.60124e-11
7.83731e-12
1.99063e-12
3.77156e-13
1.83863e-14
-2.87092e-14
-1.94514e-14
-8.8546e-15
-3.37041e-15
-1.13555e-15
-3.43912e-16
-9.28186e-17
-2.13683e-17
-3.57432e-18
-1.89964e-20
3.44278e-19
2.08739e-19
9.08783e-20
0.999143
0.996894
1.0116
1.04329
1.04136
0.939059
0.723949
0.457422
0.224273
0.0735312
0.0033167
-0.015927
-0.0137359
-0.00732147
-0.00279965
-0.000695037
-8.74036e-06
0.00010884
7.64248e-05
3.5493e-05
1.27079e-05
3.44963e-06
5.37011e-07
-1.07105e-07
-1.38871e-07
-7.5851e-08
-3.13409e-08
-1.07317e-08
-3.05469e-09
-6.64799e-10
-6.35748e-11
3.62802e-11
2.9848e-11
1.453e-11
5.72128e-12
1.9525e-12
5.85762e-13
1.51168e-13
3.05322e-14
2.75206e-15
-1.5194e-15
-1.21598e-15
-5.84932e-16
-2.31346e-16
-8.0937e-17
-2.56459e-17
-7.37249e-18
-1.88605e-18
-4.04649e-19
-2.51773e-20
1.00017
0.996132
0.998644
1.02538
1.05634
1.02598
0.882911
0.645925
0.389949
0.186477
0.0632316
0.00748614
-0.00871962
-0.00867948
-0.00499097
-0.00212332
-0.000671014
-0.000123463
2.11374e-05
3.38133e-05
2.00434e-05
8.71494e-06
3.04615e-06
8.40783e-07
1.50866e-07
-1.00563e-08
-2.56396e-08
-1.53129e-08
-6.70927e-09
-2.45098e-09
-7.66503e-10
-2.00002e-10
-3.80494e-11
-1.19371e-12
3.53043e-12
2.34028e-12
1.07014e-12
4.0997e-13
1.38494e-13
4.17049e-14
1.1003e-14
2.37132e-15
3.03309e-16
-6.1079e-17
-6.88439e-17
-3.58156e-17
-1.48205e-17
-5.38841e-18
-1.78103e-18
-4.7035e-19
1.00052
0.997468
0.994373
1.01031
1.04502
1.05043
0.964723
0.774493
0.530055
0.303548
0.141205
0.049198
0.00867771
-0.00375292
-0.00481982
-0.00302323
-0.00140688
-0.000515425
-0.000140472
-1.81929e-05
8.71089e-06
8.71652e-06
4.7166e-06
1.98086e-06
6.89438e-07
1.96431e-07
4.03969e-08
1.553e-09
-4.02279e-09
-2.79715e-09
-1.31802e-09
-5.1316e-10
-1.73247e-10
-5.08022e-11
-1.23748e-11
-2.06656e-12
8.50509e-14
2.82623e-13
1.67545e-13
7.37891e-14
2.78374e-14
9.37863e-15
2.84926e-15
7.70718e-16
1.76494e-16
2.83042e-17
-8.99998e-19
-3.47067e-18
-2.03198e-18
-8.70653e-19
1.00052
0.998571
0.994419
1.00317
1.03147
1.04678
0.993014
0.842714
0.624361
0.39885
0.217307
0.0988511
0.0354191
0.0079634
-0.000924584
-0.00232956
-0.00164242
-0.000833105
-0.000340222
-0.000112453
-2.73338e-05
-2.29547e-06
2.4094e-06
1.99035e-06
1.0251e-06
4.24059e-07
1.48751e-07
4.40221e-08
1.01703e-08
1.17501e-09
-4.84375e-10
-4.57275e-10
-2.37807e-10
-9.91336e-11
-3.58324e-11
-1.14588e-11
-3.20631e-12
-7.40242e-13
-1.09612e-13
1.28784e-14
2.01168e-14
1.12005e-14
4.82623e-15
1.80772e-15
6.10499e-16
1.87705e-16
5.20981e-17
1.2597e-17
2.37472e-18
-5.79118e-20
1.00044
0.999036
0.995445
1.00138
1.02347
1.03722
0.995465
0.869394
0.675429
0.462175
0.277223
0.144849
0.0649161
0.0239459
0.00635264
0.000357154
-0.000939606
-0.000799502
-0.000446045
-0.000199704
-7.48415e-05
-2.30538e-05
-5.16431e-06
-2.64657e-07
5.50653e-07
4.16047e-07
2.09254e-07
8.63638e-08
3.07511e-08
9.4636e-09
2.4042e-09
4.12341e-10
-2.30703e-11
-6.46173e-11
-3.91652e-11
-1.77079e-11
-6.84438e-12
-2.35242e-12
-7.24028e-13
-1.95897e-13
-4.34925e-14
-5.84194e-15
1.08519e-15
1.31745e-15
7.08786e-16
3.02042e-16
1.12985e-16
3.83843e-17
1.19866e-17
2.87749e-18
1.00039
0.999123
0.996171
1.00166
1.02044
1.03037
0.990399
0.875106
0.697111
0.496988
0.316587
0.180034
0.091033
0.0404568
0.0153485
0.00458079
0.000738814
-0.000268638
-0.000342856
-0.000216493
-0.000106029
-4.3802e-05
-1.55017e-05
-4.56308e-06
-9.75421e-07
-3.53972e-08
1.1085e-07
8.10504e-08
4.05208e-08
1.68341e-08
6.10992e-09
1.9527e-09
5.35709e-10
1.14037e-10
1.00424e-11
-7.06199e-12
-5.7763e-12
-2.91495e-12
-1.21232e-12
-4.45417e-13
-1.47786e-13
-4.42798e-14
-1.17109e-14
-2.53682e-15
-3.21048e-16
7.34006e-17
8.08209e-17
4.28315e-17
1.82028e-17
6.33767e-18
1.00036
0.999089
0.996472
1.00224
1.0199
1.02717
0.985722
0.873523
0.703487
0.512666
0.338488
0.202928
0.110519
0.0545114
0.02413
0.0093892
0.00305293
0.00070215
1.63279e-06
-0.000122502
-9.44352e-05
-5.12475e-05
-2.31155e-05
-9.05024e-06
-3.08596e-06
-8.85789e-07
-1.87006e-07
-7.66052e-09
2.01426e-08
1.48591e-08
7.48792e-09
3.15233e-09
1.16929e-09
3.87229e-10
1.13114e-10
2.76346e-11
4.57726e-12
-2.86668e-13
-7.24438e-13
-4.36731e-13
-1.98893e-13
-7.82833e-14
-2.77607e-14
-8.9848e-15
-2.64355e-15
-6.89698e-16
-1.47828e-16
-1.84857e-17
4.25831e-18
5.15941e-18
1.00036
0.999049
0.996541
1.0026
1.02011
1.02617
0.983141
0.870968
0.703881
0.51813
0.348795
0.21579
0.123094
0.064773
0.0313522
0.0138577
0.00551037
0.00190884
0.00052916
7.97818e-05
-2.92305e-05
-3.5897e-05
-2.2462e-05
-1.11158e-05
-4.74559e-06
-1.79252e-06
-5.97617e-07
-1.69979e-07
-3.64818e-08
-2.26152e-09
3.31914e-09
2.57505e-09
1.32483e-09
5.68428e-10
2.1589e-10
7.39221e-11
2.27508e-11
6.11921e-12
1.31124e-12
1.36348e-13
-6.43906e-14
-5.76644e-14
-2.9963e-14
-1.27799e-14
-4.84097e-15
-1.674e-15
-5.32551e-16
-1.54916e-16
-4.03011e-17
-6.25933e-18
1.00036
0.999029
0.996534
1.00274
1.02036
1.02604
0.982111
0.869284
0.702838
0.519266
0.352791
0.222052
0.130215
0.0713475
0.036526
0.0174232
0.0076982
0.00311647
0.00113197
0.000351935
8.11154e-05
3.46427e-06
-1.07741e-05
-8.74738e-06
-4.86871e-06
-2.26712e-06
-9.32213e-07
-3.43974e-07
-1.13354e-07
-3.23353e-08
-7.19709e-09
-6.67705e-10
4.88869e-10
4.21884e-10
2.2472e-10
9.88303e-11
3.85041e-11
1.36081e-11
4.37869e-12
1.26525e-12
3.13706e-13
5.70534e-14
7.38414e-16
-6.10953e-15
-4.05014e-15
-1.92601e-15
-7.85466e-16
-2.89494e-16
-9.84909e-17
-2.68776e-17
1.00036
0.999021
0.996518
1.00278
1.0205
1.02614
0.981829
0.86849
0.701935
0.519059
0.35395
0.224664
0.133774
0.0750943
0.0398195
0.0199349
0.00939787
0.00415195
0.00170527
0.000641995
0.000215468
6.02747e-05
1.09326e-05
-1.4409e-06
-2.84385e-06
-1.91361e-06
-9.88768e-07
-4.41584e-07
-1.76979e-07
-6.43687e-08
-2.11341e-08
-6.09704e-09
-1.42226e-09
-1.80354e-10
6.1109e-11
6.50373e-11
3.65217e-11
1.65743e-11
6.63897e-12
2.41936e-12
8.09468e-13
2.4746e-13
6.75439e-14
1.53899e-14
2.22971e-15
-3.18279e-16
-4.61761e-16
-2.63174e-16
-1.18117e-16
-4.33528e-17
1.00036
0.99902
0.996508
1.00278
1.02055
1.02622
0.981805
0.868204
0.701437
0.518673
0.35409
0.225559
0.13534
0.0770071
0.0417058
0.0215242
0.0105773
0.00493751
0.00218084
0.000905938
0.000350504
0.000124131
3.88302e-05
9.76443e-06
1.24244e-06
-5.9966e-07
-6.44277e-07
-3.89131e-07
-1.91231e-07
-8.29549e-08
-3.26812e-08
-1.17934e-08
-3.8796e-09
-1.13783e-09
-2.79078e-10
-4.45622e-11
5.32489e-12
9.31873e-12
5.67081e-12
2.67934e-12
1.10697e-12
4.15909e-13
1.44165e-13
4.61661e-14
1.3509e-14
3.49666e-15
7.27565e-16
7.34829e-17
-3.4904e-17
-3.3037e-17
1.00036
0.99902
0.996504
1.00277
1.02057
1.02627
0.981836
0.868132
0.701224
0.518412
0.353979
0.225776
0.135934
0.0778825
0.0426851
0.022438
0.0113195
0.00547528
0.00253406
0.00111857
0.000468737
0.000185178
6.81921e-05
2.29304e-05
6.7356e-06
1.51949e-06
1.01028e-07
-1.57658e-07
-1.3297e-07
-7.49696e-08
-3.55843e-08
-1.51278e-08
-5.89483e-09
-2.12064e-09
-7.01655e-10
-2.09785e-10
-5.40269e-11
-1.02216e-11
-1.23339e-13
1.20658e-12
8.35995e-13
4.16672e-13
1.78418e-13
6.91827e-14
2.47914e-14
8.26244e-15
2.55195e-15
7.18767e-16
1.77576e-16
2.20004e-17
1.00036
0.99902
0.996503
1.00277
1.02057
1.02629
0.98186
0.868127
0.701151
0.518283
0.353867
0.22578
0.136118
0.0782386
0.0431472
0.0229189
0.0117474
0.0058119
0.0027729
0.00127352
0.000561537
0.000236851
9.50767e-05
3.60435e-05
1.27412e-05
4.10126e-06
1.13972e-06
2.30637e-07
-1.06324e-10
-3.47144e-08
-2.57061e-08
-1.38437e-08
-6.41407e-09
-2.6898e-09
-1.04149e-09
-3.74803e-10
-1.25041e-10
-3.81523e-11
-1.02781e-11
-2.20676e-12
-2.12918e-13
1.31162e-13
1.15571e-13
6.20844e-14
2.77599e-14
1.11361e-14
4.12262e-15
1.42415e-15
4.60816e-16
1.16543e-16
1.00036
0.999021
0.996503
1.00277
1.02057
1.02629
0.981873
0.868135
0.701133
0.518231
0.353801
0.225745
0.136155
0.0783643
0.043345
0.0231514
0.0119751
0.00600638
0.00292166
0.00137712
0.000628009
0.000276476
0.000117162
4.76071e-05
1.84477e-05
6.76074e-06
2.31093e-06
7.17477e-07
1.90216e-07
3.473e-08
-2.41588e-09
-6.89781e-09
-4.72709e-09
-2.46855e-09
-1.12508e-09
-4.67714e-10
-1.80579e-10
-6.51705e-11
-2.1956e-11
-6.83625e-12
-1.91755e-12
-4.53212e-13
-6.97086e-14
8.84307e-15
1.4603e-14
8.79745e-15
4.15774e-15
1.7333e-15
6.64372e-16
2.12019e-16
1.00036
0.999021
0.996503
1.00277
1.02056
1.02629
0.981878
0.868141
0.701132
0.518213
0.35377
0.225717
0.136152
0.0784001
0.0434208
0.0232547
0.0120873
0.00611076
0.00300771
0.00144134
0.000671999
0.00030442
0.000133747
5.68568e-05
2.33163e-05
9.18702e-06
3.45828e-06
1.23289e-06
4.10141e-07
1.23721e-07
3.15984e-08
5.28811e-09
-6.96198e-10
-1.27602e-09
-8.34547e-10
-4.27196e-10
-1.92661e-10
-7.97034e-11
-3.07665e-11
-1.11552e-11
-3.79843e-12
-1.20603e-12
-3.50577e-13
-8.92566e-14
-1.73698e-14
-8.03127e-16
1.58444e-15
1.16906e-15
5.96691e-16
2.44628e-16
1.00036
0.999021
0.996503
1.00277
1.02056
1.02629
0.981879
0.868144
0.701134
0.518209
0.353758
0.225702
0.136143
0.0784062
0.0434461
0.0232967
0.0121387
0.00616304
0.00305423
0.00147851
0.000699138
0.000322739
0.000145279
6.36732e-05
2.7119e-05
1.11973e-05
4.46849e-06
1.7165e-06
6.3102e-07
2.20016e-07
7.16495e-08
2.11497e-08
5.26103e-09
8.29732e-10
-1.43975e-10
-2.23213e-10
-1.42278e-10
-7.1991e-11
-3.22805e-11
-1.33309e-11
-5.15571e-12
-1.88047e-12
-6.47435e-13
-2.0941e-13
-6.28109e-14
-1.69591e-14
-3.81229e-15
-5.11587e-16
1.16763e-16
1.51699e-16
1.00036
0.999021
0.996503
1.00277
1.02056
1.02629
0.98188
0.868145
0.701135
0.518209
0.353754
0.225695
0.136136
0.0784047
0.0434528
0.0233121
0.0121605
0.00618754
0.00307783
0.00149872
0.000714852
0.000333989
0.000152772
6.83519e-05
2.98739e-05
1.27343e-05
5.28396e-06
2.12918e-06
8.30658e-07
3.12482e-07
1.1269e-07
3.86081e-08
1.2373e-08
3.59844e-09
8.81954e-10
1.36016e-10
-2.49896e-11
-3.72254e-11
-2.35094e-11
-1.1841e-11
-5.30025e-12
-2.1907e-12
-8.50327e-13
-3.12295e-13
-1.08732e-13
-3.57856e-14
-1.10333e-14
-3.12312e-15
-7.77052e-16
-9.50393e-17
1.00036
0.999021
0.996503
1.00277
1.02056
1.02629
0.98188
0.868146
0.701136
0.518209
0.353753
0.225692
0.136133
0.0784027
0.0434538
0.023317
0.012169
0.00619828
0.0030891
0.00150909
0.000723435
0.000340502
0.000157354
7.13671e-05
3.17425e-05
1.38306e-05
5.89546e-06
2.45461e-06
9.96337e-07
3.93352e-07
1.50598e-07
5.56908e-08
1.97777e-08
6.68527e-09
2.11836e-09
6.10837e-10
1.49169e-10
2.33758e-11
-3.74498e-12
-5.94032e-12
-3.77286e-12
-1.90367e-12
-8.53723e-13
-3.53974e-13
-1.38094e-13
-5.11073e-14
-1.79942e-14
-6.01915e-15
-1.90617e-15
-4.65533e-16
1.00036
0.999021
0.996503
1.00277
1.02056
1.02629
0.98188
0.868146
0.701136
0.518209
0.353753
0.225691
0.136132
0.0784013
0.0434535
0.0233183
0.012172
0.00620267
0.00309418
0.00151411
0.000727877
0.000344073
0.000160006
7.32032e-05
3.29375e-05
1.4566e-05
6.32548e-06
2.69439e-06
1.12426e-06
4.58814e-07
1.82799e-07
7.09414e-08
2.67402e-08
9.75173e-09
3.42158e-09
1.14512e-09
3.60251e-10
1.03571e-10
2.54492e-11
4.18054e-12
-4.67428e-13
-9.07188e-13
-5.88567e-13
-2.99383e-13
-1.34983e-13
-5.62634e-14
-2.20903e-14
-8.24329e-15
-2.94071e-15
-8.68966e-16
1.00036
0.999021
0.996503
1.00277
1.02056
1.02629
0.98188
0.868146
0.701136
0.518209
0.353753
0.225691
0.136131
0.0784007
0.043453
0.0233184
0.0121729
0.00620434
0.00309633
0.00151643
0.00073006
0.000345934
0.000161464
7.42647e-05
3.36623e-05
1.50331e-05
6.61107e-06
2.86082e-06
1.21701e-06
5.08401e-07
2.08287e-07
8.35631e-08
3.27717e-08
1.25365e-08
4.66498e-09
1.68228e-09
5.848e-10
1.94365e-10
6.09208e-11
1.7544e-11
4.37124e-12
7.67343e-13
-3.98997e-14
-1.32108e-13
-8.92198e-14
-4.60656e-14
-2.09556e-14
-8.79933e-15
-3.48699e-15
-1.17462e-15
1.00036
0.999021
0.996503
1.00277
1.02056
1.02629
0.98188
0.868146
0.701136
0.518209
0.353753
0.225691
0.136131
0.0784004
0.0434528
0.0233183
0.0121732
0.00620492
0.00309718
0.00151743
0.000731081
0.000346859
0.000162228
7.48499e-05
3.40809e-05
1.53152e-05
6.79121e-06
2.97032e-06
1.28063e-06
5.43833e-07
2.2726e-07
9.33526e-08
3.76479e-08
1.4885e-08
5.75997e-09
2.17704e-09
8.01573e-10
2.86497e-10
9.89041e-11
3.27268e-11
1.02493e-11
2.9674e-12
7.53769e-13
1.42498e-13
1.16199e-15
-1.81778e-14
-1.31197e-14
-6.93175e-15
-3.19779e-15
-1.24755e-15
1.00036
0.999021
0.996503
1.00277
1.02056
1.02629
0.98188
0.868146
0.701136
0.518209
0.353753
0.225691
0.136131
0.0784003
0.0434526
0.0233183
0.0121732
0.00620509
0.0030975
0.00151785
0.000731536
0.000347298
0.000162612
7.51584e-05
3.43121e-05
1.5478e-05
6.89962e-06
3.03896e-06
1.32212e-06
5.67865e-07
2.40636e-07
1.00525e-07
4.13607e-08
1.67438e-08
6.66138e-09
2.60096e-09
9.95121e-10
3.72346e-10
1.35916e-10
4.82409e-11
1.65709e-11
5.47026e-12
1.71566e-12
5.00719e-13
1.30087e-13
2.64701e-14
1.65384e-15
-2.31766e-15
-1.86456e-15
-9.85224e-16
1.00036
0.999021
0.996503
1.00277
1.02056
1.02629
0.98188
0.868146
0.701136
0.518209
0.353753
0.225691
0.136131
0.0784002
0.0434526
0.0233182
0.0121732
0.00620514
0.00309761
0.00151801
0.00073173
0.000347498
0.000162796
7.53144e-05
3.44345e-05
1.5568e-05
6.96209e-06
3.08011e-06
1.34797e-06
5.83414e-07
2.49616e-07
1.05519e-07
4.40414e-08
1.81354e-08
7.36122e-09
2.9424e-09
1.15693e-09
4.469e-10
1.69344e-10
6.28335e-11
2.27758e-11
8.04051e-12
2.75265e-12
9.08036e-13
2.85697e-13
8.42034e-14
2.24051e-14
4.88083e-15
5.37001e-16
-3.42722e-16
1.00036
0.999021
0.996503
1.00277
1.02056
1.02629
0.98188
0.868146
0.701136
0.518209
0.353753
0.225691
0.136131
0.0784002
0.0434526
0.0233182
0.0121732
0.00620514
0.00309764
0.00151807
0.000731808
0.000347584
0.000162881
7.53902e-05
3.44969e-05
1.56159e-05
6.99667e-06
3.1038e-06
1.36342e-06
5.93048e-07
2.55382e-07
1.0884e-07
4.58866e-08
1.91268e-08
7.87711e-09
3.20287e-09
1.28469e-09
5.07855e-10
1.97659e-10
7.56507e-11
2.84331e-11
1.04764e-11
3.77614e-12
1.32771e-12
4.53602e-13
1.49718e-13
4.73148e-14
1.40965e-14
3.85504e-15
6.60041e-16
1.00036
0.999021
0.996503
1.00277
1.02056
1.02629
0.98188
0.868146
0.701136
0.518209
0.353753
0.225691
0.136131
0.0784002
0.0434525
0.0233182
0.0121732
0.00620514
0.00309765
0.00151809
0.000731838
0.000347621
0.000162919
7.54257e-05
3.45274e-05
1.56404e-05
7.01511e-06
3.11692e-06
1.3723e-06
5.98784e-07
2.58935e-07
1.10957e-07
4.71028e-08
1.98019e-08
8.24006e-09
3.39215e-09
1.38058e-09
5.55118e-10
2.20345e-10
8.62657e-11
3.32791e-11
1.26363e-11
4.71653e-12
1.72781e-12
6.19985e-13
2.17349e-13
7.41802e-14
2.4521e-14
7.81148e-15
1.94823e-15
1.00036
0.999021
0.996503
1.00277
1.02056
1.02629
0.98188
0.868146
0.701136
0.518209
0.353753
0.225691
0.136131
0.0784002
0.0434525
0.0233182
0.0121731
0.00620514
0.00309765
0.0015181
0.000731849
0.000347635
0.000162935
7.54417e-05
3.45419e-05
1.56525e-05
7.0246e-06
3.12393e-06
1.37722e-06
6.02076e-07
2.61044e-07
1.12255e-07
4.78729e-08
2.02432e-08
8.48481e-09
3.52379e-09
1.44936e-09
5.90069e-10
2.37644e-10
9.46143e-11
3.7211e-11
1.44451e-11
5.52978e-12
2.0854e-12
7.73823e-13
2.82121e-13
1.00875e-13
3.52899e-14
1.20717e-14
3.41318e-15
1.00036
0.999021
0.996503
1.00277
1.02056
1.02629
0.98188
0.868146
0.701136
0.518209
0.353753
0.225691
0.136131
0.0784002
0.0434525
0.0233182
0.0121731
0.00620514
0.00309765
0.0015181
0.000731853
0.00034764
0.000162942
7.54486e-05
3.45485e-05
1.56582e-05
7.02932e-06
3.12755e-06
1.37985e-06
6.03901e-07
2.62253e-07
1.13023e-07
4.8343e-08
2.05209e-08
8.64354e-09
3.61174e-09
1.49668e-09
6.14831e-10
2.50262e-10
1.00884e-10
4.02513e-11
1.58854e-11
6.19689e-12
2.38771e-12
9.07935e-13
3.40391e-13
1.25681e-13
4.56386e-14
1.63115e-14
4.93685e-15
1.00036
0.999021
0.996503
1.00277
1.02056
1.02629
0.98188
0.868146
0.701136
0.518209
0.353753
0.225691
0.136131
0.0784002
0.0434525
0.0233182
0.0121731
0.00620514
0.00309765
0.0015181
0.000731854
0.000347642
0.000162944
7.54515e-05
3.45514e-05
1.56609e-05
7.03159e-06
3.12937e-06
1.38122e-06
6.0488e-07
2.62923e-07
1.13463e-07
4.86203e-08
2.06896e-08
8.74285e-09
3.66836e-09
1.52802e-09
6.31698e-10
2.59101e-10
1.05399e-10
4.25022e-11
1.69817e-11
6.71903e-12
2.63106e-12
1.019e-12
3.90056e-13
1.47453e-13
5.49986e-14
2.02665e-14
6.4128e-15
1.00036
0.999021
0.996503
1.00277
1.02056
1.02629
0.98188
0.868146
0.701136
0.518209
0.353753
0.225691
0.136131
0.0784002
0.0434525
0.0233182
0.0121731
0.00620514
0.00309765
0.0015181
0.000731854
0.000347643
0.000162945
7.54527e-05
3.45526e-05
1.56621e-05
7.03266e-06
3.13025e-06
1.38191e-06
6.0539e-07
2.63283e-07
1.13706e-07
4.87786e-08
2.07889e-08
8.80292e-09
3.70359e-09
1.54806e-09
6.4278e-10
2.65065e-10
1.08528e-10
4.4104e-11
1.77827e-11
7.11075e-12
2.81851e-12
1.10685e-12
4.30412e-13
1.65631e-13
6.30319e-14
2.37575e-14
7.75981e-15
1.00036
0.999021
0.996503
1.00277
1.02056
1.02629
0.98188
0.868146
0.701136
0.518209
0.353753
0.225691
0.136131
0.0784002
0.0434525
0.0233182
0.0121731
0.00620514
0.00309765
0.0015181
0.000731854
0.000347643
0.000162946
7.54531e-05
3.45532e-05
1.56626e-05
7.03314e-06
3.13067e-06
1.38225e-06
6.05647e-07
2.63471e-07
1.13837e-07
4.88664e-08
2.08454e-08
8.83815e-09
3.72481e-09
1.56047e-09
6.49821e-10
2.68955e-10
1.10621e-10
4.52032e-11
1.83465e-11
7.39347e-12
2.95726e-12
1.17355e-12
4.6183e-13
1.80147e-13
6.96136e-14
2.66928e-14
8.92737e-15
1.00036
0.999021
0.996503
1.00277
1.02056
1.02629
0.98188
0.868146
0.701136
0.518209
0.353753
0.225691
0.136131
0.0784002
0.0434525
0.0233182
0.0121731
0.00620514
0.00309765
0.0015181
0.000731854
0.000347643
0.000162946
7.54533e-05
3.45534e-05
1.56629e-05
7.03335e-06
3.13086e-06
1.38241e-06
6.05774e-07
2.63566e-07
1.13906e-07
4.89136e-08
2.08768e-08
8.85821e-09
3.73722e-09
1.56791e-09
6.54156e-10
2.7141e-10
1.11976e-10
4.59325e-11
1.87298e-11
7.59041e-12
3.05627e-12
1.22229e-12
4.85354e-13
1.91281e-13
7.47855e-14
2.90562e-14
9.89422e-15
1.00036
0.999021
0.996503
1.00277
1.02056
1.02629
0.98188
0.868146
0.701136
0.518209
0.353753
0.225691
0.136131
0.0784002
0.0434525
0.0233182
0.0121731
0.00620514
0.00309765
0.0015181
0.000731854
0.000347643
0.000162946
7.54534e-05
3.45534e-05
1.5663e-05
7.03344e-06
3.13094e-06
1.38248e-06
6.05835e-07
2.63613e-07
1.13941e-07
4.89384e-08
2.08937e-08
8.86932e-09
3.74428e-09
1.57225e-09
6.56748e-10
2.72915e-10
1.12827e-10
4.64015e-11
1.89822e-11
7.72314e-12
3.12457e-12
1.2567e-12
5.02348e-13
1.99512e-13
7.86979e-14
3.08858e-14
1.06626e-14
1.00036
0.999021
0.996503
1.00277
1.02056
1.02629
0.98188
0.868146
0.701136
0.518209
0.353753
0.225691
0.136131
0.0784002
0.0434525
0.0233182
0.0121731
0.00620514
0.00309765
0.0015181
0.000731854
0.000347643
0.000162946
7.54534e-05
3.45535e-05
1.5663e-05
7.03348e-06
3.13098e-06
1.38251e-06
6.05863e-07
2.63636e-07
1.13958e-07
4.89511e-08
2.09026e-08
8.87531e-09
3.74819e-09
1.57471e-09
6.58256e-10
2.73812e-10
1.13346e-10
4.66943e-11
1.91434e-11
7.80988e-12
3.17022e-12
1.28023e-12
5.14225e-13
2.05393e-13
8.15558e-14
3.2252e-14
1.12509e-14
1.00036
0.999021
0.996503
1.00277
1.02056
1.02629
0.98188
0.868146
0.701136
0.518209
0.353753
0.225691
0.136131
0.0784002
0.0434525
0.0233182
0.0121731
0.00620514
0.00309765
0.0015181
0.000731854
0.000347643
0.000162946
7.54534e-05
3.45535e-05
1.5663e-05
7.0335e-06
3.13099e-06
1.38253e-06
6.05876e-07
2.63647e-07
1.13967e-07
4.89574e-08
2.09071e-08
8.87846e-09
3.75029e-09
1.57608e-09
6.59111e-10
2.74332e-10
1.13654e-10
4.68721e-11
1.92436e-11
7.86497e-12
3.19985e-12
1.29583e-12
5.22275e-13
2.09465e-13
8.3577e-14
3.3239e-14
1.16861e-14
1.00036
0.999021
0.996503
1.00277
1.02056
1.02629
0.98188
0.868146
0.701136
0.518209
0.353753
0.225691
0.136131
0.0784002
0.0434525
0.0233182
0.0121731
0.00620514
0.00309765
0.0015181
0.000731854
0.000347643
0.000162946
7.54534e-05
3.45535e-05
1.5663e-05
7.0335e-06
3.131e-06
1.38253e-06
6.05882e-07
2.63652e-07
1.13971e-07
4.89605e-08
2.09094e-08
8.88008e-09
3.7514e-09
1.57681e-09
6.59583e-10
2.74626e-10
1.13832e-10
4.69774e-11
1.93042e-11
7.89903e-12
3.21857e-12
1.30589e-12
5.27575e-13
2.12203e-13
8.4964e-14
3.39302e-14
1.19979e-14
1.00036
0.999021
0.996503
1.00277
1.02056
1.02629
0.98188
0.868146
0.701136
0.518209
0.353753
0.225691
0.136131
0.0784002
0.0434525
0.0233182
0.0121731
0.00620514
0.00309765
0.0015181
0.000731854
0.000347643
0.000162946
7.54534e-05
3.45535e-05
1.5663e-05
7.03351e-06
3.131e-06
1.38254e-06
6.05884e-07
2.63654e-07
1.13972e-07
4.8962e-08
2.09105e-08
8.88089e-09
3.75197e-09
1.5772e-09
6.59838e-10
2.74789e-10
1.13933e-10
4.70381e-11
1.93399e-11
7.91954e-12
3.23008e-12
1.31221e-12
5.30972e-13
2.13993e-13
8.58893e-14
3.44006e-14
1.22148e-14
1.00036
0.999021
0.996503
1.00277
1.02056
1.02629
0.98188
0.868146
0.701136
0.518209
0.353753
0.225691
0.136131
0.0784002
0.0434525
0.0233182
0.0121731
0.00620514
0.00309765
0.0015181
0.000731854
0.000347643
0.000162946
7.54534e-05
3.45535e-05
1.5663e-05
7.03351e-06
3.131e-06
1.38254e-06
6.05885e-07
2.63655e-07
1.13973e-07
4.89626e-08
2.0911e-08
8.88129e-09
3.75226e-09
1.5774e-09
6.59973e-10
2.74877e-10
1.13988e-10
4.70724e-11
1.93605e-11
7.93161e-12
3.23699e-12
1.31608e-12
5.33095e-13
2.15133e-13
8.64905e-14
3.47122e-14
1.23615e-14
1.00036
0.999021
0.996503
1.00277
1.02056
1.02629
0.98188
0.868146
0.701136
0.518209
0.353753
0.225691
0.136131
0.0784002
0.0434525
0.0233182
0.0121731
0.00620514
0.00309765
0.0015181
0.000731854
0.000347643
0.000162946
7.54534e-05
3.45535e-05
1.5663e-05
7.03351e-06
3.131e-06
1.38254e-06
6.05886e-07
2.63655e-07
1.13974e-07
4.8963e-08
2.09113e-08
8.88149e-09
3.75241e-09
1.5775e-09
6.60042e-10
2.74923e-10
1.14019e-10
4.70913e-11
1.93721e-11
7.93855e-12
3.24104e-12
1.3184e-12
5.34389e-13
2.15842e-13
8.68714e-14
3.49133e-14
1.24583e-14
1.00036
0.999021
0.996503
1.00277
1.02056
1.02629
0.98188
0.868146
0.701136
0.518209
0.353753
0.225691
0.136131
0.0784002
0.0434525
0.0233182
0.0121731
0.00620514
0.00309765
0.0015181
0.000731854
0.000347643
0.000162946
7.54534e-05
3.45535e-05
1.5663e-05
7.03351e-06
3.131e-06
1.38254e-06
6.05886e-07
2.63655e-07
1.13974e-07
4.89631e-08
2.09114e-08
8.88158e-09
3.75247e-09
1.57755e-09
6.60078e-10
2.74947e-10
1.14034e-10
4.71016e-11
1.93785e-11
7.94245e-12
3.24336e-12
1.31975e-12
5.35161e-13
2.16273e-13
8.71071e-14
3.50401e-14
1.25204e-14
1.00036
0.999021
0.996503
1.00277
1.02056
1.02629
0.98188
0.868146
0.701136
0.518209
0.353753
0.225691
0.136131
0.0784002
0.0434525
0.0233182
0.0121731
0.00620514
0.00309765
0.0015181
0.000731854
0.000347643
0.000162946
7.54534e-05
3.45535e-05
1.5663e-05
7.03351e-06
3.131e-06
1.38254e-06
6.05886e-07
2.63655e-07
1.13974e-07
4.89632e-08
2.09115e-08
8.88162e-09
3.75251e-09
1.57758e-09
6.60095e-10
2.7496e-10
1.14043e-10
4.7107e-11
1.93819e-11
7.9446e-12
3.24467e-12
1.32053e-12
5.3561e-13
2.16529e-13
8.72497e-14
3.51182e-14
1.25595e-14
1.00036
0.999021
0.996503
1.00277
1.02056
1.02629
0.98188
0.868146
0.701136
0.518209
0.353753
0.225691
0.136131
0.0784002
0.0434525
0.0233182
0.0121731
0.00620514
0.00309765
0.0015181
0.000731854
0.000347643
0.000162946
7.54534e-05
3.45535e-05
1.5663e-05
7.03351e-06
3.131e-06
1.38254e-06
6.05886e-07
2.63655e-07
1.13974e-07
4.89632e-08
2.09115e-08
8.88164e-09
3.75252e-09
1.57759e-09
6.60104e-10
2.74966e-10
1.14047e-10
4.71098e-11
1.93838e-11
7.94576e-12
3.24539e-12
1.32096e-12
5.35868e-13
2.16678e-13
8.73341e-14
3.51653e-14
1.25835e-14
1.00036
0.999021
0.996503
1.00277
1.02056
1.02629
0.98188
0.868146
0.701136
0.518209
0.353753
0.225691
0.136131
0.0784002
0.0434525
0.0233182
0.0121731
0.00620514
0.00309765
0.0015181
0.000731854
0.000347643
0.000162946
7.54534e-05
3.45535e-05
1.5663e-05
7.03351e-06
3.131e-06
1.38254e-06
6.05886e-07
2.63655e-07
1.13974e-07
4.89632e-08
2.09115e-08
8.88165e-09
3.75253e-09
1.57759e-09
6.60108e-10
2.74969e-10
1.14049e-10
4.71112e-11
1.93847e-11
7.94637e-12
3.24578e-12
1.3212e-12
5.36011e-13
2.16763e-13
8.7383e-14
3.5193e-14
1.25979e-14
1.00036
0.999021
0.996503
1.00277
1.02056
1.02629
0.98188
0.868146
0.701136
0.518209
0.353753
0.225691
0.136131
0.0784002
0.0434525
0.0233182
0.0121731
0.00620514
0.00309765
0.0015181
0.000731854
0.000347643
0.000162946
7.54534e-05
3.45535e-05
1.5663e-05
7.03351e-06
3.131e-06
1.38254e-06
6.05886e-07
2.63655e-07
1.13974e-07
4.89632e-08
2.09115e-08
8.88165e-09
3.75253e-09
1.5776e-09
6.6011e-10
2.7497e-10
1.1405e-10
4.7112e-11
1.93852e-11
7.94672e-12
3.246e-12
1.32134e-12
5.36097e-13
2.16814e-13
8.74132e-14
3.52104e-14
1.26071e-14
)
;

boundaryField
{
    upperWall
    {
        type            zeroGradient;
    }
    outlet
    {
        type            zeroGradient;
    }
    inlet
    {
        type            fixedValue;
        value           uniform 1;
    }
    lowerWall
    {
        type            fixedValue;
        value           uniform 0;
    }
    frontAndBack
    {
        type            empty;
    }
}


// ************************************************************************* //
