/*--------------------------------*- C++ -*----------------------------------*\
  =========                 |
  \\      /  F ield         | OpenFOAM: The Open Source CFD Toolbox
   \\    /   O peration     | Website:  https://openfoam.org
    \\  /    A nd           | Version:  7
     \\/     M anipulation  |
\*---------------------------------------------------------------------------*/
FoamFile
{
    version     2.0;
    format      ascii;
    class       volScalarField;
    location    "0.6";
    object      T;
}
// * * * * * * * * * * * * * * * * * * * * * * * * * * * * * * * * * * * * * //

dimensions      [0 0 0 1 0 0 0];

internalField   nonuniform List<scalar> 
2500
(
0.5
0.0669146
-0.0353169
-0.0277115
-0.00789976
0.00112931
0.00220711
0.000963794
3.88563e-05
-0.000206219
-0.000130475
-2.60559e-05
1.76157e-05
1.74838e-05
6.08573e-06
-9.05972e-07
-2.20762e-06
-1.13498e-06
-1.06769e-07
2.47094e-07
1.86488e-07
4.95189e-08
-2.03989e-08
-2.61181e-08
-9.90959e-09
1.86528e-09
4.38442e-09
2.24831e-09
-6.96675e-11
-9.87546e-10
-8.35318e-10
-3.64315e-10
-1.99165e-11
1.0973e-10
1.04433e-10
5.73345e-11
1.83909e-11
-7.46012e-13
-5.71996e-12
-4.58827e-12
-2.32753e-12
-7.67397e-13
-6.41676e-14
1.25684e-13
1.13323e-13
6.10932e-14
2.32821e-14
5.28089e-15
-6.41749e-16
-1.53127e-15
0.933085
0.5
0.14482
-0.0139075
-0.0411718
-0.0230289
-0.00507433
0.00215701
0.00250723
0.00101071
-9.37639e-08
-0.000255324
-0.000158213
-3.18215e-05
2.20236e-05
2.23999e-05
8.17918e-06
-9.48099e-07
-2.86466e-06
-1.56785e-06
-2.04673e-07
3.06297e-07
2.50607e-07
7.09006e-08
-2.72796e-08
-3.72299e-08
-1.40808e-08
4.09041e-09
8.61957e-09
5.38641e-09
1.19145e-09
-1.02952e-09
-1.3641e-09
-8.60448e-10
-3.0988e-10
7.78477e-13
9.4726e-11
8.11638e-11
4.24783e-11
1.38677e-11
5.34343e-13
-3.00389e-12
-2.5509e-12
-1.3375e-12
-4.81703e-13
-8.43745e-14
3.67915e-14
4.54708e-14
2.73052e-14
9.09154e-15
1.03532
0.85518
0.5
0.182448
0.00830364
-0.0419281
-0.032441
-0.0120093
3.84409e-05
0.00307766
0.00201936
0.000522644
-0.000189735
-0.000261936
-0.000118926
-6.07775e-06
2.86044e-05
2.0245e-05
5.20278e-06
-2.27826e-06
-2.94257e-06
-1.26912e-06
7.14406e-09
3.58721e-07
2.19969e-07
2.87244e-08
-5.25898e-08
-4.55486e-08
-1.34314e-08
7.41658e-09
1.17278e-08
7.49818e-09
2.36376e-09
-5.2884e-10
-1.26341e-09
-9.43762e-10
-4.36177e-10
-9.95038e-11
3.76695e-11
5.8375e-11
3.85853e-11
1.698e-11
4.41408e-12
-4.36664e-13
-1.34307e-12
-9.54021e-13
-4.5194e-13
-1.48523e-13
-2.18526e-14
1.61896e-14
1.02771
1.01391
0.817552
0.5
0.206389
0.0268058
-0.0388677
-0.0384381
-0.0184166
-0.00302402
0.00284105
0.00282245
0.00118552
4.2634e-05
-0.000296279
-0.000211918
-6.02214e-05
1.8843e-05
2.95091e-05
1.43657e-05
1.20975e-06
-3.26082e-06
-2.478e-06
-6.79662e-07
2.76394e-07
3.75084e-07
1.51643e-07
-2.84785e-08
-7.87007e-08
-5.21288e-08
-1.33454e-08
8.31125e-09
1.23351e-08
8.08056e-09
3.03013e-09
7.52514e-11
-8.6419e-10
-7.66582e-10
-4.08746e-10
-1.35864e-10
-6.18154e-12
2.90935e-11
2.50692e-11
1.32393e-11
4.77821e-12
8.20355e-13
-3.88648e-13
-4.69319e-13
-2.80618e-13
-9.23332e-14
1.0079
1.04117
0.991696
0.793611
0.5
0.223365
0.042154
-0.0343031
-0.0421139
-0.0239644
-0.00647534
0.00197761
0.00332499
0.00186778
0.000400617
-0.000245066
-0.000285988
-0.000129623
-8.16625e-06
3.14357e-05
2.38497e-05
7.2135e-06
-1.95652e-06
-3.35498e-06
-1.62175e-06
-4.57518e-08
4.87082e-07
3.52921e-07
8.1997e-08
-7.09237e-08
-9.2071e-08
-5.3561e-08
-1.37202e-08
6.64153e-09
1.05176e-08
7.13091e-09
2.9828e-09
4.69126e-10
-4.44776e-10
-5.02167e-10
-3.01006e-10
-1.20317e-10
-2.4152e-11
9.05398e-12
1.27188e-11
7.97802e-12
3.45732e-12
9.8692e-13
4.73945e-14
-1.75937e-13
0.998871
1.02303
1.04193
0.973194
0.776635
0.5
0.236308
0.0551561
-0.0291433
-0.0442026
-0.0286476
-0.0100134
0.000663021
0.00351518
0.00249278
0.000838162
-0.000110148
-0.000325107
-0.000202461
-4.99665e-05
2.35189e-05
3.09839e-05
1.46402e-05
1.00661e-06
-3.61819e-06
-2.72681e-06
-6.94531e-07
4.43998e-07
5.89614e-07
3.05965e-07
3.2979e-08
-8.65012e-08
-8.86593e-08
-4.85192e-08
-1.32375e-08
3.95825e-09
7.54003e-09
5.34082e-09
2.41628e-09
5.77884e-10
-1.54897e-10
-2.74442e-10
-1.85325e-10
-8.3899e-11
-2.40893e-11
-2.21212e-13
5.05678e-12
3.9478e-12
1.99785e-12
5.26062e-13
0.997793
1.00507
1.03244
1.03887
0.957846
0.763692
0.5
0.246668
0.0663827
-0.0238073
-0.0451887
-0.0325522
-0.0134733
-0.000959188
0.00341731
0.00301635
0.00131429
9.73631e-05
-0.000320813
-0.000268086
-0.000101832
5.41986e-06
3.3947e-05
2.23725e-05
5.45914e-06
-3.08223e-06
-3.92683e-06
-1.80843e-06
2.93102e-08
6.9963e-07
5.81486e-07
2.46456e-07
7.61145e-09
-7.92381e-08
-7.28356e-08
-3.87144e-08
-1.13439e-08
1.66673e-09
4.65816e-09
3.47956e-09
1.67424e-09
4.93677e-10
-1.03435e-11
-1.26256e-10
-9.83479e-11
-4.92867e-11
-1.70548e-11
-2.7374e-12
1.43572e-12
1.5629e-12
0.999036
0.997843
1.01201
1.03844
1.0343
0.944844
0.753332
0.5
0.255249
0.0762288
-0.0184971
-0.0453946
-0.0357829
-0.0167686
-0.00277964
0.00306921
0.00341666
0.00179624
0.000362433
-0.000270598
-0.000318274
-0.000158251
-2.15133e-05
3.20958e-05
2.98361e-05
1.15114e-05
-1.30169e-06
-4.91138e-06
-3.38459e-06
-9.66219e-07
4.34033e-07
7.33133e-07
4.92804e-07
1.83766e-07
-1.51273e-09
-6.03312e-08
-5.2309e-08
-2.74043e-08
-8.54157e-09
3.03515e-10
2.52003e-09
2.00732e-09
1.01759e-09
3.41567e-10
3.66512e-11
-4.80733e-11
-4.57119e-11
-2.52092e-11
-9.98322e-12
-1.44959e-12
0.999961
0.997493
0.999962
1.01842
1.04211
1.02914
0.933617
0.744751
0.5
0.262537
0.0849758
-0.0133115
-0.0450397
-0.0384394
-0.0198575
-0.00471748
0.00251129
0.00368601
0.00225904
0.000668564
-0.000176966
-0.000348422
-0.000214851
-5.57076e-05
2.52337e-05
3.67719e-05
1.95833e-05
2.59643e-06
-4.87568e-06
-4.99822e-06
-2.49869e-06
-3.75695e-07
5.52919e-07
6.20943e-07
3.67726e-07
1.2602e-07
-2.90401e-09
-3.99045e-08
-3.34238e-08
-1.7375e-08
-5.69078e-09
-2.55725e-10
1.20502e-09
1.03894e-09
5.52224e-10
2.02942e-10
3.78463e-11
-1.40252e-11
-1.88813e-11
-9.941e-12
1.00021
0.998989
0.996922
1.00302
1.02396
1.0442
1.02381
0.923771
0.737463
0.5
0.268847
0.0928295
-0.0082971
-0.0442767
-0.0406093
-0.0227241
-0.0067143
0.00178139
0.00382525
0.00268443
0.000999536
-4.6153e-05
-0.000357975
-0.000269977
-9.71874e-05
1.20639e-05
4.20766e-05
2.96033e-05
9.44168e-06
-2.69457e-06
-5.75115e-06
-4.09864e-06
-1.62421e-06
-4.89873e-08
4.93008e-07
4.51899e-07
2.45116e-07
7.9176e-08
-1.94835e-09
-2.35015e-08
-1.92546e-08
-9.96264e-09
-3.39355e-09
-3.53635e-10
5.10682e-10
4.87164e-10
2.71088e-10
1.06745e-10
2.59965e-11
-5.06673e-12
1.00013
1
0.997981
0.997159
1.00648
1.02865
1.04519
1.0185
0.915024
0.731153
0.5
0.274394
0.0999446
-0.0034733
-0.0432148
-0.0423679
-0.0253674
-0.00872784
0.000914374
0.00384237
0.00306226
0.00134304
0.00011555
-0.000348146
-0.000323969
-0.000147905
-1.07015e-05
4.26742e-05
3.9863e-05
1.90382e-05
2.38304e-06
-4.64711e-06
-4.98429e-06
-2.88666e-06
-9.38992e-07
8.39331e-08
3.62034e-07
2.90855e-07
1.47491e-07
4.55723e-08
-9.02191e-10
-1.25185e-08
-1.01039e-08
-5.21201e-09
-1.83214e-09
-2.73422e-10
1.90622e-10
2.08296e-10
1.2266e-10
3.96253e-11
1.00003
1.00026
0.999477
0.997178
0.998022
1.01001
1.03255
1.04539
1.01331
0.90717
0.725606
0.5
0.279329
0.106439
0.00115444
-0.0419331
-0.0437776
-0.0277929
-0.0107258
-5.6091e-05
0.00375303
0.003393
0.00169556
0.00030762
-0.000316671
-0.000375208
-0.000209183
-4.70111e-05
3.38549e-05
4.6656e-05
2.94368e-05
9.9488e-06
-1.22306e-06
-4.45553e-06
-3.59629e-06
-1.79354e-06
-4.83684e-07
1.07362e-07
2.31244e-07
1.68385e-07
8.08019e-08
2.41029e-08
-2.90927e-10
-6.09519e-09
-4.86954e-09
-2.50736e-09
-9.04737e-10
-1.67119e-10
6.16516e-11
7.86812e-11
0.999982
1.00016
1.00019
0.998814
0.996675
0.999337
1.01347
1.03578
1.04504
1.0083
0.900056
0.720671
0.5
0.283765
0.112406
0.00558992
-0.0404882
-0.0448896
-0.0300107
-0.0126854
-0.00110082
0.00357622
0.00368539
0.00206325
0.000538713
-0.000253102
-0.000415212
-0.000277322
-9.80332e-05
1.1572e-05
4.54609e-05
3.7237e-05
1.81971e-05
4.00298e-06
-2.32157e-06
-3.34434e-06
-2.25943e-06
-9.97231e-07
-2.21257e-07
8.54698e-08
1.31869e-07
8.87013e-08
4.06092e-08
1.17729e-08
-3.22314e-11
-2.73275e-09
-2.17002e-09
-1.11651e-09
-4.16149e-10
-4.66394e-11
0.999983
1.00003
1.00026
0.999957
0.998132
0.996485
1.00096
1.01677
1.03844
1.04428
1.00347
0.893561
0.716234
0.499999
0.287787
0.117923
0.00984267
-0.0389229
-0.0457516
-0.0320424
-0.0146033
-0.00220822
0.00332005
0.00394411
0.00245329
0.000822112
-0.000139907
-0.000427262
-0.000340781
-0.00015883
-2.45061e-05
3.32377e-05
3.89771e-05
2.4532e-05
9.61666e-06
9.30809e-07
-2.10588e-06
-2.13559e-06
-1.26387e-06
-5.00868e-07
-8.91085e-08
5.47917e-08
6.81671e-08
4.2891e-08
1.88543e-08
5.34367e-09
4.28828e-11
-1.13336e-09
-9.072e-10
-3.84912e-10
0.999994
0.999978
1.00012
1.0003
0.999599
0.997507
0.996583
1.00278
1.01986
1.04061
1.04321
0.998845
0.887593
0.712211
0.5
0.291464
0.123049
0.0139201
-0.0372781
-0.0464184
-0.0339308
-0.016507
-0.00339946
0.00296361
0.00415119
0.00285733
0.0011627
3.85745e-05
-0.000391454
-0.000381985
-0.000217886
-6.9299e-05
1.0432e-05
3.28387e-05
2.67111e-05
1.39035e-05
4.33896e-06
-2.53263e-07
-1.46401e-06
-1.20123e-06
-6.38163e-07
-2.28962e-07
-3.1032e-08
3.03386e-08
3.22733e-08
1.91777e-08
8.14064e-09
2.26913e-09
4.76462e-11
-4.60573e-10
1
0.999978
1.00001
1.00021
1.00025
0.999162
0.996984
0.996931
1.00472
1.02272
1.04237
1.04193
0.99441
0.88208
0.708539
0.5
0.294842
0.127831
0.0178278
-0.0355872
-0.0469408
-0.0357276
-0.0184467
-0.00472754
0.00245072
0.00425447
0.00323735
0.00154265
0.000283477
-0.000294497
-0.000383805
-0.000260509
-0.000113356
-1.86332e-05
1.96343e-05
2.3855e-05
1.55986e-05
6.90025e-06
1.63238e-06
-4.88551e-07
-8.60565e-07
-6.06682e-07
-2.93838e-07
-9.5941e-08
-8.96458e-09
1.49618e-08
1.41061e-08
7.97804e-09
3.31972e-09
5.87263e-10
1
0.999992
0.999971
1.00006
1.00029
1.00011
0.998686
0.996584
0.997489
1.00671
1.02537
1.04378
1.04049
0.990165
0.876961
0.705156
0.499987
0.297956
0.132319
0.0216031
-0.0338345
-0.0473205
-0.0374487
-0.0204559
-0.00624753
0.00170877
0.00417633
0.00352604
0.00191605
0.000573044
-0.00013869
-0.000337366
-0.000274501
-0.000146243
-4.72653e-05
2.5277e-06
1.6772e-05
1.43722e-05
7.98269e-06
3.02329e-06
4.7466e-07
-3.82822e-07
-4.44996e-07
-2.78699e-07
-1.24456e-07
-3.71247e-08
-1.89257e-09
6.68238e-09
5.7818e-09
2.61238e-09
1
1
0.99998
0.999981
1.00013
1.00033
0.999903
0.998204
0.996314
0.998218
1.00873
1.02779
1.04489
1.03893
0.986097
0.872172
0.702001
0.49995
0.300861
0.136615
0.0253696
-0.0318962
-0.0474483
-0.0390133
-0.0224947
-0.00796618
0.00068961
0.00384344
0.00364576
0.00221827
0.000864646
5.54387e-05
-0.000246798
-0.000255069
-0.000160465
-6.89497e-05
-1.4277e-05
7.50607e-06
1.08421e-05
7.50963e-06
3.63682e-06
1.17246e-06
7.50627e-08
-2.26497e-07
-2.06883e-07
-1.17648e-07
-4.88873e-08
-1.33739e-08
-1.11424e-10
2.85718e-09
1
1
0.999995
0.99997
1.00001
1.0002
1.00032
0.999638
0.997741
0.996174
0.999085
1.01073
1.03001
1.04576
1.03729
0.982185
0.867657
0.699033
0.49991
0.30366
0.140899
0.0293573
-0.0295196
-0.0470777
-0.0402093
-0.0244083
-0.0097984
-0.000588343
0.00322401
0.00353803
0.00238674
0.00110711
0.000254625
-0.000128404
-0.000206504
-0.00015395
-7.96016e-05
-2.71186e-05
-1.55515e-06
6.19596e-06
5.87939e-06
3.48362e-06
1.49114e-06
4.01381e-07
-2.29665e-08
-1.13298e-07
-8.77582e-08
-4.60282e-08
-1.81148e-08
-2.77039e-09
1
1
1
0.999986
0.999968
1.00005
1.00027
1.00027
0.99933
0.997313
0.996159
1.00006
1.01269
1.03203
1.0464
1.03559
0.978431
0.863394
0.696228
0.499882
0.306441
0.145345
0.0338261
-0.0263863
-0.0458707
-0.04072
-0.0259361
-0.01156
-0.00202147
0.00235221
0.00318874
0.0023829
0.00125739
0.000423648
-4.98689e-06
-0.000140151
-0.000130149
-7.8558e-05
-3.39823e-05
-8.52914e-06
1.67598e-06
3.7205e-06
2.78928e-06
1.45712e-06
5.55033e-07
1.19925e-07
-2.84453e-08
-5.00903e-08
-3.46673e-08
-1.37866e-08
1
1
1
0.999999
0.999976
0.999976
1.0001
1.00032
1.00017
0.998995
0.99694
0.996265
1.00112
1.01458
1.03385
1.04688
1.03392
0.97489
0.859341
0.693444
0.499683
0.309071
0.149942
0.0389068
-0.0222476
-0.0435107
-0.040214
-0.0267754
-0.0130068
-0.00343867
0.00132667
0.00263667
0.0022052
0.00129369
0.00053616
0.000101667
-7.00829e-05
-9.61147e-05
-6.81448e-05
-3.47699e-05
-1.25021e-05
-1.82198e-06
1.6308e-06
1.86009e-06
1.18552e-06
5.56278e-07
1.88983e-07
3.03119e-08
-1.70092e-08
-1.90122e-08
1
1
1
1
0.999992
0.999969
0.999996
1.00016
1.00034
1.00004
0.998657
0.996638
0.996466
1.00218
1.01635
1.03554
1.04738
1.03246
0.971552
0.855188
0.690107
0.498634
0.310953
0.154302
0.044446
-0.017065
-0.0398333
-0.0384614
-0.026677
-0.0139057
-0.00464805
0.000284025
0.00196235
0.00188812
0.00122002
0.000581115
0.000176773
-8.64457e-06
-5.97718e-05
-5.23299e-05
-3.0849e-05
-1.35339e-05
-3.91298e-06
8.03588e-09
9.64151e-07
8.14921e-07
4.58918e-07
1.95825e-07
5.97907e-08
-1.95017e-10
1
1
1
1
1
0.999985
0.999968
1.00002
1.00021
1.00034
0.999878
0.998343
0.99639
0.996679
1.00318
1.01807
1.03735
1.04822
1.03127
0.967978
0.849938
0.684858
0.495337
0.310922
0.157607
0.0499548
-0.0110808
-0.0349139
-0.0354255
-0.0255296
-0.0141047
-0.00549146
-0.000639606
0.00126384
0.00148944
0.00106171
0.000563138
0.000215083
3.64372e-05
-2.75813e-05
-3.52137e-05
-2.42592e-05
-1.23447e-05
-4.66713e-06
-9.96163e-07
2.67298e-07
4.58138e-07
3.21476e-07
1.65367e-07
4.91315e-08
1
1
1
1
1
0.999998
0.999979
0.999972
1.00005
1.00025
1.00033
0.999731
0.998046
0.996106
0.996798
1.00416
1.02006
1.03975
1.04958
1.02987
0.9628
0.841548
0.675436
0.487758
0.307409
0.158768
0.0547063
-0.00478242
-0.0290747
-0.0312915
-0.0233985
-0.0135754
-0.00588442
-0.00134299
0.000630372
0.00107258
0.000855294
0.000498084
0.000219928
6.27853e-05
-3.3182e-06
-1.99375e-05
-1.69673e-05
-9.90403e-06
-4.43134e-06
-1.42793e-06
-1.74206e-07
1.80317e-07
1.90944e-07
1.00442e-07
1
1
1
1
1
1
0.999996
0.999975
0.999975
1.00008
1.0003
1.00035
0.999593
0.997662
0.995645
0.996846
1.00549
1.02292
1.04309
1.05101
1.02662
0.953386
0.826966
0.659007
0.473676
0.298864
0.156733
0.0579379
0.00122038
-0.02281
-0.0264255
-0.0205076
-0.0124125
-0.00582892
-0.00177841
0.000123467
0.000690979
0.000637593
0.000406534
0.000200076
7.23559e-05
1.19955e-05
-8.23097e-06
-1.04025e-05
-7.09432e-06
-3.63587e-06
-1.44206e-06
-3.84756e-07
1.99097e-09
8.8718e-08
1
1
1
1
1
1
1
0.999994
0.999966
0.999969
1.00011
1.00039
1.00039
0.999353
0.997018
0.994995
0.997209
1.00789
1.02719
1.04701
1.0507
1.01841
0.936021
0.802711
0.632909
0.451366
0.28426
0.150829
0.0590716
0.00635222
-0.0166676
-0.0212834
-0.0171783
-0.0108002
-0.00539996
-0.00195188
-0.000230183
0.000379057
0.000437635
0.000307891
0.000166093
6.95761e-05
1.93801e-05
-5.13211e-07
-5.3156e-06
-4.53012e-06
-2.65433e-06
-1.21787e-06
-4.32339e-07
-4.71936e-08
1
1
1
1
0.999999
1
1
1.00001
0.999985
0.999942
0.999973
1.00021
1.00054
1.00035
0.998808
0.996056
0.994533
0.998699
1.01208
1.03263
1.04963
1.04522
1.00101
0.906716
0.765861
0.595509
0.420199
0.26346
0.140972
0.0578642
0.0102022
-0.0111285
-0.0163093
-0.0137517
-0.0089597
-0.00471573
-0.00190945
-0.00043511
0.000150505
0.000272974
0.000216658
0.000127461
5.94997e-05
2.09164e-05
3.69935e-06
-1.87521e-06
-2.5237e-06
-1.7375e-06
-9.14382e-07
-2.94795e-07
1
1
1
1
0.999999
0.999998
1
1.00001
1
0.999958
0.99992
1.00004
1.00039
1.00065
1.00001
0.997854
0.995124
0.995124
1.00218
1.01797
1.0374
1.0473
1.02989
0.969996
0.86238
0.715034
0.546835
0.380934
0.237304
0.127693
0.0544452
0.0125915
-0.00652385
-0.0118542
-0.0105214
-0.00709985
-0.00390458
-0.00171748
-0.000517013
2.09557e-06
0.000149978
0.00014119
9.10081e-05
4.65053e-05
1.88834e-05
5.32097e-06
1.25768e-07
-1.14324e-06
-1.02258e-06
-5.19023e-07
1
1
1
1
1
0.999998
1
1.00001
1.00001
0.999981
0.999925
0.999948
1.00019
1.00056
1.00049
0.999228
0.996793
0.995093
0.997739
1.00774
1.02382
1.03772
1.03501
0.99991
0.922103
0.801884
0.650979
0.488711
0.335596
0.207418
0.111998
0.0492516
0.0135704
-0.00300352
-0.00813362
-0.00769261
-0.00538287
-0.00307878
-0.00144422
-0.000511112
-7.99628e-05
6.65751e-05
8.4336e-05
6.05728e-05
3.36776e-05
1.52051e-05
5.32051e-06
1.062e-06
-3.15893e-07
-4.92039e-07
1
1
1
1
1
0.999999
0.999999
1
1.00001
0.999994
0.999949
0.999935
1.00007
1.00036
1.0005
0.999896
0.998253
0.996476
0.996997
1.0026
1.01374
1.0258
1.02832
1.00759
0.951788
0.856344
0.726592
0.576537
0.424382
0.28702
0.175844
0.0951233
0.0429007
0.0133645
-0.000551916
-0.00522513
-0.00537113
-0.00390985
-0.00231981
-0.00114702
-0.000452501
-0.00011368
1.58191e-05
4.50568e-05
3.74771e-05
2.27465e-05
1.1221e-05
4.49949e-06
1.32911e-06
-1.81774e-08
1
1
1
1
1
0.999999
0.999999
1
1.00001
0.999998
0.999969
0.999954
1.00002
1.0002
1.00033
1.00003
0.999082
0.997905
0.997957
1.00116
1.00819
1.01638
1.01848
1.00372
0.961262
0.884527
0.774498
0.640171
0.49604
0.357817
0.238261
0.144629
0.0782869
0.0360492
0.0122949
0.000965998
-0.00309435
-0.00357547
-0.00272311
-0.00167474
-0.000866312
-0.000370118
-0.000116527
-1.09484e-05
2.02061e-05
2.13517e-05
1.43554e-05
7.68845e-06
3.44433e-06
8.9949e-07
1
1
1
1
1
0.999999
1
1
1
0.999996
0.999978
0.999977
1.00003
1.00013
1.00016
0.999925
0.999364
0.998831
0.999228
1.00162
1.00617
1.01079
1.01016
0.996145
0.959877
0.894913
0.800104
0.680806
0.547803
0.414399
0.292936
0.192051
0.115489
0.0624999
0.0292801
0.0107021
0.00174905
-0.00163435
-0.00226172
-0.00181904
-0.00116072
-0.00062523
-0.000284333
-0.000102726
-2.19143e-05
5.98287e-06
1.09522e-05
8.43528e-06
4.97108e-06
1.95367e-06
1
1
1
1
1
0.999999
1
1
1
0.999993
0.999979
0.999991
1.00005
1.00012
1.00006
0.99977
0.999342
0.999237
1.00016
1.00262
1.00613
1.00839
1.00489
0.989219
0.954502
0.895462
0.810543
0.703098
0.581056
0.455125
0.336208
0.232984
0.150438
0.0896258
0.0484635
0.023033
0.00888844
0.00201022
-0.000705017
-0.0013511
-0.00116481
-0.000773357
-0.0004327
-0.000207202
-8.23376e-05
-2.36602e-05
-1.13678e-06
4.77236e-06
4.6192e-06
2.57816e-06
1
1
1
1
1
0.999999
1
1
1
0.999991
0.999976
0.999996
1.00007
1.00013
1.00003
0.99966
0.999223
0.99931
1.00065
1.00348
1.00681
1.00792
1.00234
0.984547
0.949076
0.892028
0.812403
0.712885
0.599686
0.481404
0.36723
0.26507
0.180179
0.11464
0.0676801
0.0365506
0.0175814
0.00708556
0.00194166
-0.000163977
-0.000753325
-0.000713746
-0.00049569
-0.00028788
-0.000144164
-6.15392e-05
-2.08482e-05
-3.95833e-06
1.46425e-06
2.15787e-06
1
1
1
1
1
0.999999
1
1
1
0.99999
0.999974
0.999995
1.00008
1.00015
1.00003
0.999607
0.999116
0.999243
1.0008
1.00399
1.00752
1.00828
1.00157
0.982089
0.945183
0.888041
0.810525
0.715464
0.608337
0.49638
0.387311
0.287975
0.203276
0.13564
0.0850909
0.0497949
0.0268491
0.0130457
0.00544588
0.00169613
0.000113809
-0.0003828
-0.000417022
-0.00030562
-0.000184441
-9.61943e-05
-4.3485e-05
-1.64091e-05
-4.48948e-06
3.23229e-07
1
1
1
1
1
0.999999
1
1
1
0.99999
0.999973
0.999994
1.00008
1.00016
1.00004
0.999595
0.999054
0.999155
1.0008
1.0042
1.008
1.00881
1.00165
0.981158
0.942982
0.884984
0.807793
0.714717
0.611146
0.503645
0.398918
0.302837
0.219693
0.151802
0.0995196
0.0615953
0.0357416
0.0192365
0.00942607
0.00404999
0.00138207
0.000227104
-0.000167488
-0.000230776
-0.000181058
-0.000113905
-6.1747e-05
-2.92878e-05
-1.20595e-05
-2.80746e-06
1
1
1
1
1
0.999999
1
1
1
0.99999
0.999972
0.999992
1.00008
1.00016
1.00005
0.999599
0.99903
0.999094
1.00074
1.00424
1.00823
1.00921
1.00199
0.981034
0.942026
0.883144
0.805531
0.712992
0.611136
0.506336
0.404745
0.311526
0.230361
0.163239
0.110528
0.0712546
0.0435399
0.0250605
0.0134605
0.00664243
0.0029228
0.00106781
0.000247238
-5.19438e-05
-0.000119441
-0.000102805
-6.78187e-05
-3.81906e-05
-1.90865e-05
-6.55686e-06
1
1
1
1
1
0.999999
1
1
1
0.99999
0.999972
0.999991
1.00008
1.00016
1.00006
0.999607
0.999027
0.999063
1.00068
1.00421
1.00831
1.00943
1.0023
0.981209
0.941776
0.882261
0.804084
0.711415
0.610154
0.506739
0.40711
0.316012
0.236658
0.170678
0.118284
0.0785627
0.0498485
0.0300916
0.017186
0.00921074
0.00457188
0.00205196
0.00079006
0.000221564
3.436e-06
-5.63455e-05
-5.56778e-05
-3.88762e-05
-2.3018e-05
-9.83018e-06
1
1
1
1
1
0.999999
1
1
1
0.99999
0.999972
0.999991
1.00008
1.00016
1.00006
0.999613
0.999031
0.999054
1.00065
1.00418
1.00831
1.00952
1.00249
0.98142
0.941828
0.881958
0.803335
0.710342
0.609122
0.506263
0.407689
0.317957
0.239984
0.175105
0.123331
0.0836895
0.0545836
0.0341165
0.0203587
0.0115411
0.0061709
0.00307772
0.00140435
0.000563528
0.000178832
2.50848e-05
-2.27627e-05
-2.84834e-05
-2.16409e-05
-1.14155e-05
1
1
1
1
1
0.999999
1
1
1
0.99999
0.999973
0.999991
1.00008
1.00016
1.00006
0.999616
0.999036
0.999054
1.00064
1.00415
1.00829
1.00954
1.00258
0.98157
0.941954
0.881929
0.803033
0.709748
0.60837
0.505633
0.407527
0.31856
0.2415
0.177487
0.126354
0.0870262
0.0578912
0.0371143
0.0228699
0.0134989
0.00759785
0.00405246
0.00202898
0.000938683
0.00038934
0.000134698
2.95107e-05
-6.26715e-06
-1.36926e-05
-1.0326e-05
1
1
1
1
1
0.999999
1
1
1
0.999991
0.999973
0.999991
1.00008
1.00016
1.00006
0.999617
0.999039
0.999057
1.00064
1.00413
1.00827
1.00954
1.00261
0.981651
0.94206
0.881991
0.802962
0.709483
0.607928
0.505135
0.407174
0.318571
0.242042
0.178617
0.128007
0.0890361
0.0600435
0.0391997
0.0247268
0.015033
0.00878144
0.00490875
0.00261137
0.00131145
0.000613767
0.000261495
9.63938e-05
2.63347e-05
8.49388e-07
-6.06074e-06
1
1
1
1
1
0.999999
1
1
1
0.99999
0.999973
0.999991
1.00008
1.00016
1.00006
0.999617
0.99904
0.999059
1.00064
1.00413
1.00825
1.00952
1.00262
0.981685
0.942125
0.882059
0.80298
0.709397
0.607714
0.504825
0.406863
0.318395
0.242132
0.17906
0.128816
0.0901493
0.0613459
0.040556
0.0260131
0.0161594
0.00969995
0.00561041
0.00311544
0.00165284
0.000832001
0.000393149
0.00017122
6.62272e-05
2.08471e-05
1.29264e-06
1
1
1
1
1
0.999999
1
1
1
0.99999
0.999973
0.999991
1.00008
1.00016
1.00006
0.999617
0.999041
0.999061
1.00064
1.00413
1.00825
1.00952
1.00261
0.981693
0.942155
0.882105
0.803018
0.70939
0.607632
0.504663
0.406656
0.318213
0.242061
0.179174
0.129156
0.0907084
0.0620754
0.04138
0.0268492
0.0169365
0.0103698
0.00614995
0.00352373
0.0019442
0.00102853
0.000518606
0.000247031
0.000109515
4.43706e-05
1.11244e-05
1
1
1
1
1
0.999999
1
1
1
0.99999
0.999973
0.999991
1.00008
1.00016
1.00006
0.999617
0.999041
0.999061
1.00064
1.00413
1.00825
1.00951
1.0026
0.981692
0.942166
0.882129
0.803048
0.709407
0.607613
0.504594
0.406541
0.318082
0.241962
0.179159
0.129264
0.0909555
0.0624497
0.0418459
0.0273587
0.0174412
0.0108302
0.00654089
0.00383494
0.00217761
0.00119402
0.000629797
0.000317914
0.000152379
6.91945e-05
2.24895e-05
1
1
1
1
1
0.999999
1
1
1
0.99999
0.999973
0.999991
1.00008
1.00016
1.00006
0.999617
0.99904
0.999061
1.00064
1.00413
1.00825
1.00951
1.0026
0.981689
0.942167
0.882139
0.803066
0.709425
0.607617
0.504572
0.406488
0.318005
0.241884
0.17911
0.129274
0.0910446
0.0626218
0.0420892
0.0276492
0.0177497
0.0111289
0.00680856
0.00405905
0.00235403
0.00132522
0.000722252
0.000379798
0.000191747
9.326e-05
3.43405e-05
1
1
1
1
1
0.999999
1
1
1
0.99999
0.999973
0.999991
1.00008
1.00016
1.00006
0.999617
0.99904
0.999061
1.00064
1.00413
1.00825
1.00951
1.0026
0.981686
0.942166
0.882142
0.803074
0.709437
0.607627
0.50457
0.406468
0.317967
0.241835
0.179066
0.129253
0.0910637
0.0626894
0.0422047
0.0278032
0.0179267
0.0113118
0.006982
0.00421192
0.00248033
0.0014236
0.00079482
0.00043064
0.000225628
0.000114995
4.57334e-05
1
1
1
1
1
0.999999
1
1
1
0.99999
0.999973
0.999991
1.00008
1.00016
1.00006
0.999617
0.99904
0.999061
1.00064
1.00413
1.00825
1.00951
1.0026
0.981685
0.942165
0.882142
0.803077
0.709443
0.607634
0.504574
0.406464
0.317951
0.241809
0.179037
0.12923
0.0910577
0.0627089
0.042253
0.0278782
0.0180218
0.0114174
0.00708842
0.00431084
0.00256615
0.00149362
0.000848817
0.000470163
0.000253143
0.000133447
5.59615e-05
1
1
1
1
1
0.999999
1
1
1
0.99999
0.999973
0.999991
1.00008
1.00016
1.00006
0.999617
0.99904
0.999061
1.00064
1.00413
1.00825
1.00951
1.0026
0.981684
0.942164
0.882142
0.803078
0.709446
0.607638
0.504578
0.406465
0.317946
0.241798
0.17902
0.129214
0.0910467
0.0627095
0.0422693
0.0279111
0.0180691
0.0114748
0.00715022
0.00437167
0.00262167
0.00154107
0.000887077
0.000499397
0.000274371
0.000148298
6.46333e-05
1
1
1
1
1
0.999999
1
1
1
0.99999
0.999973
0.999991
1.00008
1.00016
1.00006
0.999617
0.99904
0.999061
1.00064
1.00413
1.00825
1.00951
1.0026
0.981684
0.942163
0.882141
0.803078
0.709446
0.60764
0.504581
0.406466
0.317946
0.241793
0.179012
0.129204
0.0910378
0.062705
0.0422724
0.0279234
0.0180905
0.0115037
0.00718379
0.00440676
0.0026554
0.00157128
0.000912501
0.000519629
0.000289649
0.000159404
7.14237e-05
1
1
1
1
1
0.999999
1
1
1
0.99999
0.999973
0.999991
1.00008
1.00016
1.00006
0.999617
0.99904
0.999061
1.00064
1.00413
1.00825
1.00951
1.0026
0.981684
0.942163
0.882141
0.803078
0.709447
0.607641
0.504582
0.406468
0.317947
0.241792
0.179009
0.129198
0.0910309
0.0626995
0.0422704
0.0279269
0.0181003
0.0115194
0.00720415
0.00442984
0.00267913
0.00159383
0.000932527
0.000536399
0.000302951
0.000169552
7.80052e-05
)
;

boundaryField
{
    upperWall
    {
        type            zeroGradient;
    }
    outlet
    {
        type            zeroGradient;
    }
    inlet
    {
        type            fixedValue;
        value           uniform 1;
    }
    lowerWall
    {
        type            fixedValue;
        value           uniform 0;
    }
    frontAndBack
    {
        type            empty;
    }
}


// ************************************************************************* //
