/*--------------------------------*- C++ -*----------------------------------*\
  =========                 |
  \\      /  F ield         | OpenFOAM: The Open Source CFD Toolbox
   \\    /   O peration     | Website:  https://openfoam.org
    \\  /    A nd           | Version:  7
     \\/     M anipulation  |
\*---------------------------------------------------------------------------*/
FoamFile
{
    version     2.0;
    format      ascii;
    class       volScalarField;
    location    "0.1";
    object      T;
}
// * * * * * * * * * * * * * * * * * * * * * * * * * * * * * * * * * * * * * //

dimensions      [0 0 0 1 0 0 0];

internalField   nonuniform List<scalar> 
23686
(
0.509833
0.910668
0.997886
0.97599
1.00771
1.01799
1.00356
1.01008
1.00107
1.00235
1.00042
1.00038
1.00047
1.00057
1.0006
1.00095
1.00063
1.00116
1.00068
1.00125
1.00076
1.00138
1.00077
1.00131
1.00065
1.00122
1.00067
1.00133
1.00067
1.00129
1.00063
1.0013
1.00065
1.00135
1.0006
1.00133
1.0006
1.00144
1.0007
1.00151
1.00066
1.00143
1.00067
1.0014
1.00063
1.00138
1.00065
1.0014
1.00071
1.00141
1.00066
1.00138
1.00066
1.00135
1.00069
1.00144
1.00069
1.00141
1.00069
1.00131
1.00065
1.00129
1.00066
1.00129
1.00067
1.00137
1.00065
1.00142
1.0006
1.00139
1.00065
1.00148
1.0007
1.00148
1.00064
1.00136
1.00064
1.00137
1.00064
1.00139
1.00066
1.00143
1.00069
1.00143
1.00065
1.00142
1.00071
1.0014
1.00066
1.00137
1.0007
1.00138
1.0007
1.00135
1.0007
1.0014
1.00069
1.00131
1.00066
1.00132
1.0007
1.00138
1.00068
1.00133
1.0007
1.00139
1.00066
1.00135
1.00066
1.0013
1.00064
1.00132
1.00062
1.00134
1.00065
1.00141
1.00068
1.00143
1.00065
1.00142
1.00071
1.0014
1.00066
1.00138
1.0007
1.00138
1.00074
1.00134
1.00069
1.00131
1.00068
1.00124
1.00068
1.00131
1.00067
1.00134
1.00066
1.00128
1.00069
1.00139
1.00068
1.00137
1.00067
1.00131
1.00065
1.00131
1.0006
1.0013
1.00061
1.00141
1.00069
1.00149
1.00067
1.00146
1.00072
1.00142
1.00066
1.00138
1.00069
1.00139
1.0007
1.00134
1.00062
1.0013
1.00062
1.00129
1.0007
1.00145
1.00071
1.0014
1.00067
1.00132
1.00068
1.0014
1.00066
1.00139
1.00067
1.00137
1.00068
1.00134
1.00061
1.0013
1.00062
1.0014
1.0007
1.00149
1.00067
1.00145
1.0008
1.00143
1.00077
1.00137
1.00092
1.00136
1.00109
1.0012
1.00157
1.00078
1.00089
0.111899
-0.00297715
-0.000408645
6.62473e-05
4.83952e-06
-3.86029e-07
-6.46841e-08
-3.33761e-09
5.61813e-11
1.83285e-11
1.2438e-12
3.34785e-14
-7.06966e-16
-1.40183e-16
-7.17703e-18
-2.29409e-19
-2.79243e-21
2.01011e-22
1.72392e-23
8.15925e-25
2.9295e-26
6.3461e-28
3.30388e-30
-4.88453e-31
-3.05139e-32
-1.0767e-33
-2.77933e-35
-5.86397e-37
-6.03664e-39
1.2193e-40
1.12302e-41
4.33835e-43
1.18597e-44
2.85744e-46
6.40545e-48
1.071e-49
1.63972e-51
2.23642e-53
1.88816e-55
-5.03941e-58
-6.38761e-59
-1.85709e-60
-3.43292e-62
-5.31627e-64
-8.29898e-66
-9.39772e-68
-9.24122e-70
-9.76854e-72
-1.08502e-73
0
-2.5894e-75
-1.68953e-71
-1.64123e-69
-4.97311e-69
1.2589e-64
1.4467e-63
-1.45533e-61
-1.08039e-59
-1.32472e-58
-4.12207e-57
1.16414e-54
4.48806e-53
-1.29413e-51
-2.4919e-50
-2.32984e-50
9.42128e-48
1.087e-46
1.02046e-45
-1.08439e-43
-6.06651e-43
-1.63304e-42
-7.97566e-41
5.24724e-40
1.00676e-37
-5.97474e-37
-2.72808e-36
3.75251e-35
-3.516e-34
2.09457e-33
3.99478e-33
2.1439e-32
3.65912e-31
1.38823e-30
3.1394e-30
7.03741e-30
1.06144e-28
3.41567e-28
7.22318e-28
1.45212e-27
2.75777e-27
5.06326e-27
8.16774e-27
1.2653e-26
1.58764e-26
1.48353e-26
1.21831e-26
1.09285e-26
1.15977e-26
7.96492e-27
4.72565e-27
0.991408
0.992982
1.0096
1.00224
1.01986
1.01517
1.01102
1.01629
0.958425
0.978802
0.865314
0.896739
0.753931
0.789366
0.624371
0.662749
0.493999
0.530741
0.372784
0.40588
0.275974
0.30224
0.200401
0.221232
0.139998
0.156283
0.0969108
0.108353
0.0651278
0.0733072
0.0424275
0.0480582
0.027435
0.0311317
0.0175661
0.0200325
0.0107666
0.0123889
0.00667582
0.00766424
0.00409015
0.00471232
0.00245976
0.00285618
0.0014607
0.00169887
0.000874624
0.00101536
0.000511476
0.000596781
0.000296442
0.0003467
0.000166212
0.000195291
9.50986e-05
0.000111486
5.42234e-05
6.38099e-05
2.97229e-05
3.51551e-05
1.66225e-05
1.96126e-05
9.15037e-06
1.08356e-05
4.94141e-06
5.85888e-06
2.68736e-06
3.18281e-06
1.46152e-06
1.73664e-06
7.63442e-07
9.11096e-07
4.08274e-07
4.85397e-07
2.1654e-07
2.57928e-07
1.12599e-07
1.34564e-07
5.99104e-08
7.1647e-08
3.05078e-08
3.66342e-08
1.59399e-08
1.90853e-08
8.18952e-09
9.83296e-09
4.08632e-09
4.91206e-09
2.0919e-09
2.50729e-09
1.0739e-09
1.29131e-09
5.29145e-10
6.38207e-10
2.67638e-10
3.2183e-10
1.34992e-10
1.62597e-10
6.66821e-11
8.07149e-11
3.26005e-11
3.93846e-11
1.61654e-11
1.94874e-11
8.04069e-12
9.71321e-12
3.92728e-12
4.75483e-12
1.88374e-12
2.27994e-12
9.22354e-13
1.11472e-12
4.53462e-13
5.49884e-13
2.14517e-13
2.60614e-13
1.04519e-13
1.26672e-13
5.00131e-14
6.07842e-14
2.33566e-14
2.83548e-14
1.12597e-14
1.36353e-14
5.41235e-15
6.57871e-15
2.50091e-15
3.04352e-15
1.18646e-15
1.44028e-15
5.62929e-16
6.84384e-16
2.61488e-16
3.19289e-16
1.20357e-16
1.46628e-16
5.66743e-17
6.8948e-17
2.63171e-17
3.20526e-17
1.2203e-17
1.48833e-17
5.49529e-18
6.69607e-18
2.54736e-18
3.09678e-18
1.19247e-18
1.45571e-18
5.35703e-19
6.54087e-19
2.4834e-19
3.02801e-19
1.13701e-19
1.39013e-19
5.13622e-20
6.26535e-20
2.35428e-20
2.86792e-20
1.08267e-20
1.32372e-20
4.81503e-21
5.88522e-21
2.19589e-21
2.67753e-21
9.95005e-22
1.21502e-21
4.44199e-22
5.42452e-22
2.02826e-22
2.48387e-22
8.81895e-23
1.08031e-22
3.94896e-23
4.82949e-23
1.72797e-23
2.11856e-23
7.27691e-24
8.91012e-24
3.16968e-24
3.87113e-24
1.38154e-24
1.69458e-24
5.77964e-25
7.09485e-25
2.5145e-25
3.08818e-25
1.12802e-25
1.39257e-25
5.29193e-26
6.58806e-26
2.59499e-26
3.25631e-26
1.45303e-26
1.85988e-26
8.54718e-27
5.91611e-27
1.09598e-26
-3.49318e-75
7.74431e-27
0.014106
-0.00192125
3.71849e-05
2.57558e-05
-8.1378e-09
-1.86168e-07
-1.70084e-08
-3.47643e-10
4.66021e-11
5.19184e-12
2.34683e-13
2.19443e-15
-4.13789e-16
-3.3697e-17
-1.37345e-18
-3.16548e-20
2.23754e-22
6.6831e-23
3.98449e-24
1.57711e-25
4.6394e-27
6.84305e-29
-1.00586e-30
-1.30742e-31
-5.8122e-33
-1.78833e-34
-4.10372e-36
-6.86596e-38
-8.79985e-41
4.29129e-41
2.32494e-42
7.32239e-44
1.892e-45
4.35231e-47
8.35769e-49
1.36544e-50
1.91912e-52
2.29299e-54
9.92584e-57
-2.84088e-58
-1.12768e-59
-2.59009e-61
-4.33652e-63
-6.57721e-65
-9.24314e-67
-9.23128e-69
-9.42984e-71
-1.03407e-72
-0.00153971
-1.18195e-74
9.87177e-27
-1.50114e-73
-4.84527e-71
-1.22646e-68
9.85867e-66
5.39253e-64
8.4065e-63
-1.3506e-60
-8.94112e-59
-1.75356e-58
3.93398e-56
2.5318e-54
-6.2576e-53
-4.92935e-51
-9.77576e-50
-3.36514e-49
3.40794e-47
6.09052e-46
1.71743e-44
-3.15551e-43
-1.61647e-42
3.81717e-41
-5.14934e-40
6.65185e-39
-2.13492e-38
-4.75168e-37
-2.54805e-35
3.87404e-35
-2.77334e-34
5.00754e-33
-1.55973e-33
1.35841e-31
7.51983e-31
2.55377e-30
2.34739e-30
3.27816e-29
2.09838e-28
4.98801e-28
1.0346e-27
1.97362e-27
3.79532e-27
6.50804e-27
1.03943e-26
1.4703e-26
1.58767e-26
1.3425e-26
1.10889e-26
1.16319e-26
9.89692e-27
0.000185855
0.064771
2.04051e-05
0.453601
4.32795e-06
8.93709e-05
1.16847e-06
-6.4092e-07
-6.53932e-08
-1.89954e-09
1.50522e-10
1.96373e-11
1.03127e-12
1.58574e-14
-1.366e-15
-1.41009e-16
-6.15436e-18
-1.59135e-19
-2.2472e-22
2.58936e-22
1.66167e-23
6.91406e-25
2.20075e-26
3.75242e-28
-2.56234e-30
-5.2555e-31
-2.64945e-32
-8.51145e-34
-1.96916e-35
-3.48336e-37
-1.35083e-39
1.695e-40
9.96494e-42
3.48558e-43
8.88314e-45
2.00583e-46
4.13449e-48
6.67976e-50
9.468e-52
1.12519e-53
5.5023e-56
-1.29662e-57
-5.25171e-59
-1.25482e-60
-2.18009e-62
-3.15795e-64
-4.38991e-66
-4.65128e-68
-4.65808e-70
-4.72665e-72
-4.89334e-74
-6.35384e-71
-1.60377e-68
1.2984e-65
7.0693e-64
1.05692e-62
-1.78303e-60
-1.16973e-58
-2.30787e-58
5.20484e-56
3.37497e-54
-8.26546e-53
-6.49764e-51
-1.25604e-49
-3.73453e-49
4.53616e-47
7.87251e-46
2.13599e-44
-4.07957e-43
-2.07791e-42
4.83375e-41
-6.51856e-40
9.23816e-39
-3.00367e-38
-6.52473e-37
-3.20488e-35
4.74729e-35
-3.34576e-34
6.43775e-33
-1.4866e-33
1.77306e-31
9.78691e-31
3.31824e-30
3.16247e-30
4.31431e-29
2.72942e-28
6.48421e-28
1.34341e-27
2.56257e-27
4.93184e-27
8.49572e-27
1.34559e-26
1.91041e-26
2.06588e-26
1.74429e-26
1.43471e-26
1.4979e-26
1.26167e-26
-1.98608e-73
-1.20952e-06
-2.25142e-07
-1.40611e-08
8.51084e-11
6.28772e-11
4.82618e-12
1.63015e-13
-1.53432e-15
-4.91236e-16
-3.07955e-17
-1.08354e-18
-1.70931e-20
6.49901e-22
7.15627e-23
3.59485e-24
1.26979e-25
3.18093e-27
2.65626e-29
-1.70114e-30
-1.23565e-31
-4.82797e-33
-1.34246e-34
-2.71536e-36
-3.36591e-38
4.3935e-40
4.36703e-41
1.93777e-42
5.70534e-44
1.37454e-45
2.92458e-47
5.34522e-49
8.28095e-51
1.04816e-52
9.75472e-55
-1.68036e-57
-2.94334e-58
-8.26906e-60
-1.68649e-61
-2.64085e-63
-3.72666e-65
-4.66664e-67
-4.70433e-69
-4.75028e-71
-4.73965e-73
-2.15367e-69
2.31498e-71
1.65579e-64
1.90733e-63
-1.91793e-61
-1.42212e-59
-1.71482e-58
-5.24646e-57
1.52731e-54
5.74328e-53
-1.70032e-51
-3.27652e-50
-2.84557e-50
1.22432e-47
1.43006e-46
1.32831e-45
-1.40537e-43
-8.0207e-43
-1.95762e-42
-1.01627e-40
7.50825e-40
1.2715e-37
-7.67644e-37
-3.63244e-36
4.64978e-35
-4.445e-34
2.70138e-33
5.14587e-33
2.88576e-32
4.76644e-31
1.81373e-30
4.08281e-30
9.51019e-30
1.37496e-28
4.42842e-28
9.38897e-28
1.8915e-27
3.58955e-27
6.59187e-27
1.06084e-26
1.638e-26
2.06375e-26
1.9363e-26
1.58298e-26
1.4095e-26
1.48027e-26
1.04979e-26
-0.00504661
-0.00553685
-2.2354e-71
0.594904
-0.00169876
0.941666
1.00031
0.975171
1.00416
1.00775
0.99966
1.0017
0.997247
0.994938
0.996769
0.992879
0.99693
0.992816
0.99702
0.993322
0.996994
0.993132
0.996871
0.993354
0.997098
0.99329
0.997317
0.993357
0.997094
0.993666
0.997447
0.993558
0.997418
0.993464
0.997436
0.993677
0.997721
0.993626
0.997385
0.993643
0.997515
0.993594
0.997386
0.993638
0.997459
0.993708
0.997537
0.993845
0.997365
0.993692
0.997372
0.993595
0.997342
0.993787
0.997296
0.993458
0.997373
0.993655
0.99725
0.99363
0.997484
0.99353
0.997284
0.993851
0.997453
0.993645
0.99731
0.993487
0.997491
0.993701
0.997542
0.993517
0.997435
0.993489
0.997484
0.99361
0.997505
0.993652
0.997442
0.993776
0.99751
0.993775
0.997338
0.993678
0.997491
0.993594
0.997285
0.993727
0.997347
0.993524
0.997349
0.993703
0.997075
0.993541
0.997363
0.993338
0.997084
0.993672
0.997406
0.993487
0.997178
0.993465
0.997186
0.993573
0.997208
0.993232
0.997227
0.99348
0.997279
0.99368
0.997397
0.99347
0.997501
0.993723
0.997508
0.993775
0.997336
0.993613
0.997508
0.993577
0.997293
0.993731
0.997349
0.993543
0.997353
0.993708
0.997146
0.993571
0.997282
0.993461
0.997228
0.993827
0.997334
0.993358
0.997329
0.99343
0.997252
0.993701
0.997317
0.993319
0.997246
0.993559
0.997306
0.993695
0.997397
0.993507
0.997457
0.993743
0.997749
0.993765
0.99739
0.993696
0.997448
0.993528
0.997197
0.993575
0.997299
0.993418
0.99735
0.993606
0.99725
0.993531
0.997574
0.993547
0.997561
0.993961
0.997461
0.993652
0.9973
0.99375
0.997265
0.993673
0.99739
0.993439
0.997258
0.993622
0.997382
0.993713
0.997342
0.993614
0.997435
0.993715
0.997681
0.993777
0.997263
0.993669
0.997504
0.993572
0.997031
0.993621
0.997039
0.993476
0.996793
0.993845
0.996067
0.993954
0.993708
0.993314
0.993819
-3.91707e-71
0.00236196
9.16597e-05
0.235689
2.91154e-05
9.21184e-07
-1.18274e-07
-1.63279e-08
-8.24394e-10
7.54342e-14
2.9773e-12
2.33539e-13
9.26576e-15
3.3432e-17
-1.71939e-17
-1.27111e-18
-5.57215e-20
-1.25744e-21
2.50755e-25
1.98379e-24
1.16552e-25
4.37211e-27
1.10147e-28
1.25529e-30
-4.54515e-32
-3.76776e-33
-1.65749e-34
-4.33331e-36
-1.00655e-37
-1.73408e-39
-5.78398e-42
8.87045e-43
4.40225e-44
1.53323e-45
3.65478e-47
8.15946e-49
1.60623e-50
2.72189e-52
3.38288e-54
3.3889e-56
1.19472e-58
-5.61222e-60
-1.73027e-61
-4.06999e-63
-6.64386e-65
-9.12069e-67
-1.13926e-68
-1.42363e-70
-1.05871e-72
-3.79395e-69
-0.00397446
-0.00484617
-0.00425585
-5.2193e-75
1.4414e-26
1.44292e-26
6.87902e-06
4.0862e-06
0.517343
3.45338e-68
2.94516e-64
3.27453e-63
-3.48211e-61
-2.50114e-59
-2.74905e-58
-8.47091e-57
2.66625e-54
9.61429e-53
-3.05563e-51
-5.67061e-50
1.15301e-50
2.26979e-47
2.46265e-46
2.0609e-45
-2.58204e-43
-1.34092e-42
-1.81345e-42
-1.88668e-40
1.95468e-39
2.11735e-37
-1.33489e-36
-6.9076e-36
8.87737e-35
-7.56389e-34
5.03513e-33
7.25092e-33
5.81541e-32
8.08775e-31
3.06185e-30
6.35251e-30
1.79755e-29
2.35123e-28
7.17435e-28
1.49376e-27
2.99133e-27
5.68554e-27
1.03887e-26
1.64637e-26
2.51351e-26
3.14084e-26
2.84582e-26
2.35447e-26
2.12895e-26
2.26807e-26
1.41024e-26
2.01247e-26
0.0521218
0.185069
0.0250338
-0.000263054
6.95037e-05
7.94548e-05
8.38745e-05
1.00994
1.00265
1.01544
1.0161
1.00908
1.02296
0.957811
0.99001
0.866851
0.912277
0.755037
0.804451
0.625396
0.6779
0.494022
0.54295
0.374772
0.417702
0.278095
0.311704
0.203103
0.228296
0.143895
0.16371
0.0989689
0.113102
0.0660972
0.0759595
0.0432006
0.0499959
0.0278537
0.0323433
0.0178607
0.0207205
0.0111043
0.0130132
0.00683974
0.00803106
0.00415753
0.00488233
0.00256378
0.00300552
0.00153671
0.00181847
0.000896956
0.00106125
0.000532484
0.000630249
0.000307055
0.000364378
0.000173503
0.000207366
9.94698e-05
0.000118573
5.6956e-05
6.76566e-05
3.15906e-05
3.78669e-05
1.75384e-05
2.099e-05
9.60979e-06
1.15054e-05
5.23026e-06
6.28566e-06
2.83326e-06
3.4075e-06
1.54081e-06
1.84575e-06
8.19329e-07
9.88083e-07
4.33205e-07
5.22976e-07
2.26292e-07
2.72614e-07
1.21315e-07
1.46225e-07
6.43265e-08
7.7225e-08
3.32616e-08
4.02944e-08
1.72176e-08
2.08375e-08
8.79752e-09
1.064e-08
4.40757e-09
5.35961e-09
2.25599e-09
2.7361e-09
1.15868e-09
1.39833e-09
5.80104e-10
7.04627e-10
2.90242e-10
3.52955e-10
1.45098e-10
1.7597e-10
7.35755e-11
8.89829e-11
3.62777e-11
4.42735e-11
1.72507e-11
2.09926e-11
8.77672e-12
1.06294e-11
4.3436e-12
5.27934e-12
2.08125e-12
2.53929e-12
1.01702e-12
1.23712e-12
5.01534e-13
6.0764e-13
2.41554e-13
2.94858e-13
1.16812e-13
1.42497e-13
5.57187e-14
6.78814e-14
2.59932e-14
3.18011e-14
1.25946e-14
1.53619e-14
6.02487e-15
7.32185e-15
2.83112e-15
3.45904e-15
1.32784e-15
1.62455e-15
6.23357e-16
7.59912e-16
2.96976e-16
3.60956e-16
1.37857e-16
1.69085e-16
6.28024e-17
7.66746e-17
2.98215e-17
3.64029e-17
1.37484e-17
1.67676e-17
6.23003e-18
7.63657e-18
2.89221e-18
3.53589e-18
1.36553e-18
1.66022e-18
6.21611e-19
7.60883e-19
2.86714e-19
3.50793e-19
1.30492e-19
1.5929e-19
5.94557e-20
7.28401e-20
2.71411e-20
3.32492e-20
1.24947e-20
1.52298e-20
5.65713e-21
6.92852e-21
2.5485e-21
3.12509e-21
1.13513e-21
1.38668e-21
5.21443e-22
6.37681e-22
2.36742e-22
2.88292e-22
1.04167e-22
1.27772e-22
4.60797e-23
5.65384e-23
1.99888e-23
2.44677e-23
8.4183e-24
1.036e-23
3.65998e-24
4.49318e-24
1.59228e-24
1.94525e-24
6.79719e-25
8.34693e-25
2.95088e-25
3.63115e-25
1.35671e-25
1.66195e-25
6.90624e-26
8.42012e-26
3.69313e-26
4.56519e-26
0.758874
-4.33691e-73
-0.00107459
0.804635
-5.18664e-71
0.000173982
-1.04492e-70
-3.15846e-73
-9.54871e-08
-4.94795e-08
-4.14186e-09
-1.14284e-10
7.27205e-12
9.27482e-13
4.99587e-14
1.21349e-15
-4.23326e-17
-5.08585e-18
-2.96288e-19
-9.09153e-21
-1.27724e-22
5.07922e-24
5.46264e-25
2.38425e-26
7.33482e-28
1.44494e-29
-3.34828e-32
-1.58125e-32
-8.13803e-34
-2.90155e-35
-6.86408e-37
-1.40079e-38
-1.68718e-40
2.49925e-42
2.21492e-43
8.22588e-45
2.48175e-46
5.85224e-48
1.11063e-49
2.22466e-51
3.05155e-53
3.57574e-55
2.79367e-57
-1.88701e-59
-1.07555e-60
-2.66875e-62
-5.49814e-64
-7.67613e-66
-1.07587e-67
-1.27002e-69
-1.39426e-71
-5.02058e-69
1.14337e-07
-2.76516e-68
2.33785e-65
1.20972e-63
1.63622e-62
-3.23685e-60
-1.96999e-58
-3.51916e-58
9.52657e-56
5.84226e-54
-1.7391e-52
-1.12825e-50
-2.01161e-49
-2.9032e-49
7.92157e-47
1.34522e-45
3.12807e-44
-6.6352e-43
-3.2693e-42
8.10413e-41
-1.00733e-39
1.89684e-38
-1.18613e-37
-1.08494e-36
-5.16731e-35
5.31591e-35
-3.21394e-34
1.03777e-32
-1.82566e-33
3.13645e-31
1.60613e-30
5.3334e-30
4.94662e-30
7.79341e-29
4.45287e-28
1.02897e-27
2.10113e-27
4.00104e-27
7.63944e-27
1.34538e-26
2.06702e-26
2.89721e-26
3.04777e-26
2.58171e-26
2.09852e-26
2.28397e-26
1.9e-26
-2.86357e-07
4.58461e-16
-1.38515e-70
3.63153e-14
2.2959e-26
2.32778e-05
8.2139e-13
2.89035e-26
2.75629e-26
3.04729e-26
3.6582e-26
4.03066e-26
3.23192e-26
2.11794e-26
1.32563e-26
7.27498e-27
3.81442e-27
1.90416e-27
9.17448e-28
2.99225e-28
2.23813e-29
8.12896e-30
3.90149e-30
1.02532e-30
7.07133e-32
9.28721e-33
6.27239e-33
-9.66488e-34
1.10153e-34
-8.69615e-36
-1.69985e-36
2.75333e-37
2.29281e-39
-2.4138e-40
-3.05292e-42
-1.78466e-42
-3.31797e-43
2.79079e-45
3.16279e-46
2.91111e-47
-9.55014e-51
-7.48825e-50
-3.98825e-51
1.2734e-52
3.48693e-54
-1.13309e-56
-3.67903e-58
-3.29738e-59
-4.51067e-61
4.29061e-63
-6.62344e-72
-6.53812e-70
-5.74047e-68
-4.40304e-66
-3.31281e-64
-1.73075e-62
-7.89605e-61
-2.62348e-59
7.48341e-58
1.67716e-55
1.68776e-53
1.33967e-51
7.16197e-50
3.90076e-48
1.76395e-46
6.33501e-45
1.89876e-43
3.36698e-42
-5.59067e-41
-8.26085e-39
-4.66645e-37
-2.14024e-35
-6.61642e-34
-1.5249e-32
-1.57786e-31
7.22519e-30
4.9599e-28
1.83787e-26
4.79465e-25
6.4759e-24
-3.40833e-23
-6.01508e-21
-2.36773e-19
-4.60805e-18
-5.50878e-17
2.35324e-26
2.9117e-26
2.71839e-26
3.34786e-26
3.92387e-26
3.70764e-26
2.65961e-26
1.71473e-26
9.7794e-27
5.14012e-27
2.68554e-27
1.31162e-27
5.63907e-28
9.81132e-29
6.32874e-30
6.82778e-30
2.04094e-30
3.95463e-31
-2.99776e-33
1.31694e-32
-5.22094e-34
7.66748e-35
-6.74324e-35
-1.35559e-36
-1.2919e-37
2.32785e-38
-1.3628e-39
1.05328e-40
-4.31658e-42
-8.57855e-43
4.245e-44
1.77507e-45
1.03121e-46
-5.51242e-49
-2.67732e-49
-1.46873e-50
-2.13334e-52
7.7629e-54
1.23156e-55
-4.89769e-58
-2.60885e-58
-3.64636e-68
-7.01031e-71
-6.05253e-69
-5.04217e-67
-3.83887e-65
-2.52839e-63
-1.18213e-61
-4.75554e-60
-6.33589e-59
1.45408e-56
1.76183e-54
1.55177e-52
1.01331e-50
5.34722e-49
2.52087e-47
1.13404e-45
3.54936e-44
8.54342e-43
6.61072e-42
-8.88297e-40
-6.41703e-38
-3.046e-36
-1.27649e-34
-3.26402e-33
-5.63273e-32
1.85445e-31
6.77266e-29
3.16934e-27
9.52285e-26
1.95726e-24
1.37321e-23
-6.80176e-22
-4.03474e-20
-1.07597e-18
-1.73571e-17
-9.33818e-17
5.86697e-15
1.86481e-13
2.99774e-12
1.70984e-11
-5.11274e-10
-1.42586e-08
-1.44737e-07
-3.62256e-11
-3.0922e-09
-4.8477e-08
9.61927e-12
3.86118e-64
3.90469e-68
3.07517e-65
1.60206e-63
2.21027e-62
-4.21974e-60
-0.000225465
0.981339
1.00779
1.0083
1.00485
1.01916
0.999257
1.00959
0.99665
1.00356
0.996326
1.00143
0.996233
1.00141
0.99619
1.00094
0.996253
1.00115
0.996119
1.00088
0.995997
1.00081
0.995941
1.00074
0.996027
1.00142
0.995756
1.00105
0.99603
1.00112
0.995951
1.00113
0.995732
1.00098
0.996149
1.00052
0.99585
1.00065
0.995815
1.00032
0.996099
1.00068
0.995813
1.00075
0.996139
1.00061
0.996195
1.00113
0.995999
1.00068
0.996055
1.0007
0.995766
1.00074
0.995977
1.00067
0.996112
1.00095
0.996011
1.00145
0.99595
1.00108
0.996247
1.0014
0.995775
1.00119
0.995779
1.00105
0.99597
1.00075
0.995977
1.00075
0.99583
1.00052
0.996107
1.00069
0.995848
1.00079
0.996114
1.00061
0.995965
1.001
0.996024
1.00068
0.996239
1.001
0.99602
1.00106
0.996245
1.00104
0.996028
1.00101
0.996142
1.00147
0.996098
1.00113
0.996411
1.00142
0.996062
1.00111
0.996089
1.00073
0.996102
1.00111
0.995733
1.00066
0.995932
1.00063
0.996142
1.00086
0.995814
1.00075
0.996081
1.00056
0.995964
1.00097
0.996043
1.00069
0.996203
1.00098
0.995847
1.00094
0.996167
1.00085
0.996084
1.00133
0.995925
1.00147
0.996088
1.00101
0.996316
1.00133
0.996125
1.00111
0.996006
1.00069
0.99613
1.00104
0.995748
1.00063
0.995893
1.00077
0.995897
1.00098
0.995842
1.00112
0.996227
1.00099
0.996038
1.0013
0.996103
1.0009
0.996198
1.00105
0.995748
1.00081
0.995766
1.00048
0.995944
1.00063
0.996096
1.00078
0.995892
1.0007
0.996155
1.00091
0.996124
1.00097
0.996021
1.0006
0.996049
1.0007
0.995641
1.0005
0.995929
1.00068
0.995991
1.00108
0.995884
1.00124
0.996328
1.00106
0.996076
1.00133
0.996326
1.0009
0.996324
1.00146
0.999901
1.00669
1.00169
-7.39559e-60
5.64212e-06
1.18811e-13
5.71834e-65
2.9557e-26
7.11205e-15
-6.09895e-10
-1.77178e-11
1.26452e-07
-2.09583e-08
-2.49521e-09
-2.12311e-09
-1.22729e-10
-4.57913e-10
-8.02704e-11
4.33954e-26
1.98378e-26
3.84263e-13
3.91158e-13
-2.3478e-70
3.05726e-14
2.5274e-14
3.47533e-26
1.79061e-16
-1.62281e-18
-4.82742e-19
-2.84258e-20
-1.04363e-21
-2.17344e-23
3.51922e-25
5.1847e-26
2.42212e-27
9.18736e-29
1.99544e-30
2.0756e-32
-9.32271e-34
-7.09421e-35
-2.89349e-36
-8.06041e-38
-2.09651e-39
-3.76125e-41
-3.21447e-43
8.30666e-45
5.89681e-46
1.91895e-47
5.76669e-49
1.31675e-50
2.51745e-52
4.46795e-54
7.39031e-56
9.51454e-58
9.69891e-60
6.65835e-62
-5.11315e-64
-2.76525e-65
-5.79675e-67
-1.04292e-68
1.9625e-05
1.73122e-05
3.40635e-62
2.82473e-63
1.54919e-67
7.50223e-65
7.49146e-63
4.56455e-62
-8.23318e-61
-1.07402e-60
-9.65276e-60
-6.19585e-68
1.88342e-67
-4.71379e-58
-7.72678e-58
2.32855e-55
1.32079e-53
-4.52773e-52
-2.57253e-50
-4.42645e-49
-2.34952e-49
1.84567e-46
2.92207e-45
6.49001e-44
-1.4311e-42
-6.90152e-42
1.78998e-40
-2.13628e-39
4.70221e-38
-3.49298e-37
-2.28688e-36
-1.10896e-34
6.97318e-35
-3.32382e-34
2.13408e-32
-2.65637e-33
7.07848e-31
3.42808e-30
1.11864e-29
9.9191e-30
1.76134e-28
9.40417e-28
2.11638e-27
4.2522e-27
8.11407e-27
1.55523e-26
2.63936e-26
4.16508e-26
5.7052e-26
5.80622e-26
4.86679e-26
4.06696e-26
4.47874e-26
5.61078e-26
1.17462e-06
4.33164e-06
6.80958e-07
1.01191
1.0123
1.01579
1.02607
0.971449
1.00124
0.887404
0.929795
0.781213
0.830516
0.648515
0.702473
0.517115
0.567831
0.395694
0.439754
0.29663
0.331348
0.21676
0.243218
0.154869
0.175529
0.106496
0.121458
0.0710787
0.0818726
0.046335
0.0537131
0.0301596
0.0349901
0.0193782
0.0225074
0.0119889
0.0140705
0.00749941
0.00878968
0.00455799
0.00536312
0.00280848
0.00329844
0.001681
0.00198325
0.000995953
0.00118056
0.000581817
0.000689916
0.000337334
0.000401673
0.000192172
0.000229603
0.000111478
0.000132773
6.2677e-05
7.46715e-05
3.52419e-05
4.22567e-05
1.95154e-05
2.33329e-05
1.07108e-05
1.28642e-05
5.78548e-06
6.98265e-06
3.16986e-06
3.81381e-06
1.72353e-06
2.07004e-06
9.05735e-07
1.09633e-06
4.87582e-07
5.8852e-07
2.53816e-07
3.0731e-07
1.36336e-07
1.6482e-07
7.13827e-08
8.61174e-08
3.76493e-08
4.55804e-08
1.94736e-08
2.35521e-08
9.90725e-09
1.20459e-08
4.98496e-09
6.06566e-09
2.58657e-09
3.14003e-09
1.31369e-09
1.59134e-09
6.4837e-10
7.90764e-10
3.30557e-10
4.0171e-10
1.66252e-10
2.02411e-10
8.34796e-11
1.01688e-10
4.12323e-11
5.02463e-11
1.98946e-11
2.43254e-11
1.00104e-11
1.21696e-11
4.95816e-12
6.04402e-12
2.37089e-12
2.90092e-12
1.17885e-12
1.44009e-12
5.70689e-13
6.94984e-13
2.80458e-13
3.42485e-13
1.35392e-13
1.65113e-13
6.43444e-14
7.88036e-14
3.02492e-14
3.71647e-14
1.47094e-14
1.79872e-14
6.96706e-15
8.50332e-15
3.23791e-15
3.97226e-15
1.54774e-15
1.89331e-15
7.29452e-16
8.93357e-16
3.43695e-16
4.20994e-16
1.59203e-16
1.94865e-16
7.44071e-17
9.13567e-17
3.4587e-17
4.23919e-17
1.60131e-17
1.96575e-17
7.31232e-18
8.97993e-18
3.4483e-18
4.23376e-18
1.58872e-18
1.94129e-18
7.39898e-19
9.10166e-19
3.41268e-19
4.17517e-19
1.55237e-19
1.90482e-19
7.00992e-20
8.63723e-20
3.24103e-20
3.97409e-20
1.49291e-20
1.8253e-20
6.66516e-21
8.19848e-21
3.05842e-21
3.75274e-21
1.35469e-21
1.66482e-21
6.22461e-22
7.65688e-22
2.77714e-22
3.40144e-22
1.24563e-22
1.53026e-22
5.50177e-23
6.74973e-23
2.34961e-23
2.88781e-23
1.0141e-23
1.24737e-23
4.40002e-24
5.42236e-24
1.89748e-24
2.32599e-24
8.03922e-25
9.92592e-25
3.62164e-25
4.4453e-25
1.72051e-25
2.1111e-25
9.03902e-26
1.10441e-25
4.87288e-05
5.3232e-05
2.75663e-26
-0.00439074
8.19869e-13
1.09413e-12
-0.00148002
-0.000993656
2.6054e-26
-9.87806e-71
0.568952
-3.10125e-70
9.8907e-63
0.873206
3.64328e-26
-7.56064e-12
-5.71193e-13
-2.7554e-08
-8.05966e-09
6.97859e-64
-4.313e-09
1.0669e-13
3.67716e-26
1.26278e-15
1.61878e-17
-1.3934e-18
-1.27827e-19
-5.93175e-21
-1.69332e-22
-1.30813e-24
1.79459e-25
1.24037e-26
5.09402e-28
1.42887e-29
2.47189e-31
-8.4549e-34
-2.90697e-34
-1.51939e-35
-5.14111e-37
-1.3816e-38
-2.95523e-40
-4.05365e-42
1.06062e-45
2.60295e-45
1.16068e-46
3.41605e-48
8.85123e-50
1.8474e-51
3.49821e-53
5.86429e-55
8.34967e-57
1.02089e-58
8.69733e-61
1.96643e-63
-1.49857e-64
-4.43022e-66
-8.24615e-68
5.47192e-15
-8.88052e-69
4.65654e-26
0.0168067
-0.00410093
3.70346e-63
9.17501e-64
-1.29291e-70
0.926037
-1.00923e-57
-5.79814e-58
-5.87907e-59
-1.09046e-57
-7.65106e-59
-1.8e-56
6.16009e-54
2.11524e-52
-7.26181e-51
-1.31001e-49
1.19236e-49
5.15561e-47
5.52424e-46
4.1635e-45
-6.26618e-43
-2.99317e-42
-1.81032e-42
-4.46709e-40
5.48749e-39
4.47731e-37
-2.9796e-36
-1.61185e-35
2.02571e-34
-1.6535e-33
1.13086e-32
1.26777e-32
1.39662e-31
1.7711e-30
6.43653e-30
1.24733e-29
4.21105e-29
5.17578e-28
1.47828e-27
3.0439e-27
6.07882e-27
1.15983e-26
2.08639e-26
3.27468e-26
5.02426e-26
6.06468e-26
5.3971e-26
4.48338e-26
4.21612e-26
4.72958e-05
-2.4131e-56
4.94466e-26
0.0724201
9.66297e-05
5.78556e-26
5.28639e-26
6.29449e-26
7.45771e-26
7.31361e-26
5.33788e-26
3.37556e-26
1.98437e-26
1.03354e-26
5.41426e-27
2.69767e-27
1.19179e-27
2.21127e-28
1.26442e-29
1.42379e-29
4.33448e-30
8.83366e-31
-4.70176e-33
2.72123e-32
-6.50232e-34
1.08536e-34
-1.45023e-34
-2.82525e-36
-3.96536e-37
5.83403e-38
-2.89499e-39
2.3208e-40
-9.17598e-42
-1.85751e-42
9.05394e-44
3.84354e-45
2.396e-46
-4.782e-68
-2.98331e-66
-1.28886e-64
-1.40543e-63
3.78638e-61
5.31133e-59
4.8005e-57
3.53671e-55
2.21317e-53
1.21143e-51
6.10414e-50
2.47918e-48
8.93512e-47
2.36668e-45
2.15757e-44
-2.09778e-42
-1.89955e-40
-9.76255e-39
-3.80668e-37
-1.22204e-35
-2.74367e-34
-2.6979e-33
1.28188e-31
9.58378e-30
3.89633e-28
1.04142e-26
1.85205e-25
4.72198e-25
-1.05467e-22
-4.43485e-21
-1.0993e-19
-7.63839e-09
1.41892e-12
5.41411e-26
5.80182e-26
6.95565e-26
7.79979e-26
6.42867e-26
4.19467e-26
2.66648e-26
1.47361e-26
7.75137e-27
3.89031e-27
1.87999e-27
6.49705e-28
5.27909e-29
1.61556e-29
8.1807e-30
2.23588e-30
1.69956e-31
1.61091e-32
1.40858e-32
-2.12074e-33
2.52398e-34
-2.01748e-35
-3.76491e-36
5.82702e-37
6.49648e-39
-5.72622e-40
-3.97973e-42
-3.97107e-42
-7.93809e-43
5.6825e-45
7.15004e-46
-0.0059438
-0.00268625
-0.00907619
6.6101e-47
9.11765e-50
-1.723e-49
-9.41243e-51
2.79933e-52
8.10167e-54
-3.56876e-67
-2.0724e-65
-6.37281e-64
1.94024e-62
4.84537e-60
5.27003e-58
4.35479e-56
2.76718e-54
1.61892e-52
8.86591e-51
4.05606e-49
1.43211e-47
4.8843e-46
9.29111e-45
-9.12839e-44
-2.25777e-41
-1.42981e-39
-5.89952e-38
-2.24332e-36
-6.05322e-35
-1.04718e-33
4.02967e-33
1.22973e-30
6.59945e-29
1.94725e-27
4.70759e-26
5.69239e-25
-1.00081e-23
-7.16908e-22
-2.25993e-20
-4.51648e-19
-3.54096e-18
9.91027e-17
-1.33817e-69
0.64936
-1.17925e-68
-4.97522e-08
-2.37219e-08
-7.14821e-70
-1.52091e-18
2.00888e-18
8.39238e-16
-5.50052e-69
-8.19553e-68
-6.65498e-49
-5.90508e-49
-3.36286e-50
-5.56471e-52
-6.22624e-58
1.74041e-53
3.00137e-55
-1.39162e-05
-3.15779e-09
8.73325e-26
5.21312e-49
1.01263
1.02109
1.03065
1.01669
1.02757
1.01402
1.02233
1.01326
1.02001
1.01274
1.01973
1.01228
1.01881
1.01214
1.01875
1.01251
1.01912
1.01197
1.01879
1.0125
1.01786
1.01226
1.01894
1.0119
1.01786
1.01266
1.01827
1.0122
1.01877
1.01122
1.01804
1.0121
1.01798
1.01164
1.01829
1.01129
1.01746
1.01167
1.01756
1.01141
1.01755
1.01184
1.01742
1.01191
1.01836
1.01167
1.01798
1.01156
1.01769
1.01176
1.01783
1.01201
1.01799
1.01258
1.01802
1.01209
1.01878
1.01207
1.01765
1.01272
1.01858
1.01218
1.01864
1.01165
1.01819
1.01209
1.01809
1.01176
1.01817
1.01135
1.01763
1.01169
1.01762
1.01139
1.01757
1.01173
1.01747
1.01181
1.01806
1.01189
1.01787
1.01195
1.01817
1.0121
1.01827
1.01188
1.01823
1.01235
1.01767
1.01213
1.01876
1.01176
1.01761
1.01216
1.01821
1.01158
1.01799
1.0118
1.01741
1.01206
1.01841
1.0117
1.01818
1.01163
1.01779
1.01181
1.01794
1.01142
1.01763
1.01175
1.01749
1.01183
1.01806
1.01192
1.0179
1.01192
1.01821
1.01197
1.01828
1.01228
1.01812
1.01246
1.01824
1.01186
1.01847
1.01174
1.01756
1.01227
1.01823
1.01165
1.01818
1.0115
1.01731
1.01207
1.01822
1.01177
1.01801
1.01238
1.01805
1.01205
1.01853
1.01198
1.01804
1.01238
1.01826
1.01211
1.01858
1.01197
1.01809
1.01183
1.01819
1.01181
1.01812
1.01137
1.01786
1.01181
1.0176
1.01174
1.01789
1.01138
1.01752
1.01183
1.0176
1.01132
1.01772
1.0115
1.01725
1.01216
1.01848
1.01198
1.01837
1.01264
1.01813
1.01242
1.01861
1.01212
1.01816
1.01237
1.01833
1.0122
1.01836
1.01241
1.0176
1.00822
8.56839e-11
1.01682
-5.1583e-70
0.112729
-1.9941e-68
3.51334e-26
0.228241
-7.89429e-11
5.52335e-14
1.7702e-08
8.45013e-07
1.65275e-62
-2.10702e-13
6.12843e-15
1.63803e-07
6.2239e-07
9.95146e-08
-7.1075e-68
3.31642e-15
1.49644e-16
-3.54757e-09
2.21833e-09
-6.20086e-09
2.83075e-21
-4.45051e-20
-2.85896e-21
-1.26799e-22
-3.4491e-24
-1.83736e-26
3.40228e-27
2.29639e-28
9.41435e-30
2.75123e-31
6.31666e-33
4.22837e-35
-3.08123e-36
-2.12994e-37
-8.02074e-39
-2.28112e-40
-5.19395e-42
-8.70885e-44
-7.71839e-46
1.6985e-47
1.19853e-48
4.16251e-50
1.08017e-51
2.52539e-53
5.22447e-55
9.08042e-57
1.44032e-58
1.99681e-60
1.58972e-62
5.24578e-65
1.26781e-14
1.12847e-14
6.6769e-26
-0.00519354
5.46226e-67
2.98581e-53
5.28802e-26
-1.35309e-58
-1.65517e-57
-0.000926824
-1.30583e-66
5.66998e-55
1.41246e-53
1.86773e-53
3.95655e-53
-1.12985e-51
-5.76575e-50
-9.62888e-49
4.52413e-49
4.53366e-49
9.11565e-50
-3.27131e-67
-2.31718e-67
4.20008e-46
6.59822e-45
1.404e-43
-3.04696e-42
-1.41866e-41
3.90205e-40
-4.56772e-39
1.13109e-37
-9.75307e-37
-4.67275e-36
-2.36363e-34
5.75578e-35
1.14114e-34
4.41092e-32
2.59692e-34
1.55899e-30
7.18547e-30
2.3365e-29
2.06338e-29
4.01096e-28
1.96333e-27
4.28694e-27
8.68982e-27
1.64499e-26
3.09352e-26
5.23779e-26
8.29741e-26
1.123e-25
1.10816e-25
9.30879e-26
7.83083e-26
6.60394e-63
2.16585e-62
-3.77559e-56
-5.13944e-56
7.37624e-55
1.02072
4.48159e-10
0.984115
1.01047
0.906952
0.948368
0.806369
0.85636
0.675855
0.73213
0.544606
0.598621
0.419106
0.466956
0.31589
0.352684
0.232058
0.261491
0.165762
0.188624
0.113979
0.130783
0.0769506
0.0889573
0.0503326
0.058453
0.0331065
0.0384774
0.0211383
0.0247518
0.0131292
0.0154563
0.00832934
0.00975114
0.00506608
0.00599678
0.00309094
0.00364154
0.00185292
0.00219779
0.00110313
0.00131535
0.000642777
0.000767525
0.000377868
0.000451651
0.00021627
0.000260012
0.000125039
0.00014939
6.9906e-05
8.40772e-05
3.90511e-05
4.70341e-05
2.16593e-05
2.6154e-05
1.20494e-05
1.45603e-05
6.54444e-06
7.91535e-06
3.63089e-06
4.38919e-06
1.94691e-06
2.36888e-06
1.02348e-06
1.2451e-06
5.61115e-07
6.7853e-07
2.92239e-07
3.56264e-07
1.55021e-07