/*--------------------------------*- C++ -*----------------------------------*\
  =========                 |
  \\      /  F ield         | OpenFOAM: The Open Source CFD Toolbox
   \\    /   O peration     | Website:  https://openfoam.org
    \\  /    A nd           | Version:  7
     \\/     M anipulation  |
\*---------------------------------------------------------------------------*/
FoamFile
{
    version     2.0;
    format      ascii;
    class       volScalarField;
    location    "0.9";
    object      T;
}
// * * * * * * * * * * * * * * * * * * * * * * * * * * * * * * * * * * * * * //

dimensions      [0 0 0 1 0 0 0];

internalField   nonuniform List<scalar> 
2500
(
0.5
0.0669146
-0.0353169
-0.0277115
-0.00789976
0.00112931
0.00220711
0.000963794
3.88563e-05
-0.000206219
-0.000130475
-2.60559e-05
1.76156e-05
1.74837e-05
6.08561e-06
-9.06071e-07
-2.20759e-06
-1.13469e-06
-1.06163e-07
2.47859e-07
1.87024e-07
4.9395e-08
-2.13887e-08
-2.77866e-08
-1.17496e-08
4.15055e-10
3.66275e-09
2.25273e-09
3.95978e-10
-4.00861e-10
-3.77447e-10
-1.28409e-10
2.77528e-11
5.67665e-11
2.96866e-11
3.20033e-12
-6.40852e-12
-5.13084e-12
-1.64993e-12
1.51735e-13
3.04729e-13
-5.07023e-14
-2.24385e-13
-1.44461e-13
1.01921e-14
1.01678e-13
1.06066e-13
6.38346e-14
1.95409e-14
-1.10335e-14
0.933085
0.5
0.14482
-0.0139075
-0.0411718
-0.0230289
-0.00507433
0.00215701
0.00250723
0.00101071
-9.38734e-08
-0.000255324
-0.000158213
-3.18213e-05
2.20241e-05
2.24005e-05
8.17946e-06
-9.48178e-07
-2.86443e-06
-1.56602e-06
-2.00131e-07
3.13491e-07
2.58847e-07
7.77033e-08
-2.39627e-08
-3.79446e-08
-1.77304e-08
-5.20145e-10
4.83205e-09
3.30898e-09
7.45155e-10
-4.88515e-10
-5.43336e-10
-2.14598e-10
1.89967e-11
7.66583e-11
4.63604e-11
9.76681e-12
-5.44431e-12
-5.1396e-12
-1.14719e-12
7.52666e-13
4.36158e-13
-4.36433e-13
-8.20167e-13
-6.40729e-13
-2.53225e-13
4.26822e-14
1.62527e-13
1.22308e-13
1.03532
0.85518
0.5
0.182448
0.00830364
-0.0419281
-0.032441
-0.0120093
3.84408e-05
0.00307766
0.00201936
0.000522644
-0.000189734
-0.000261936
-0.000118925
-6.07707e-06
2.86043e-05
2.02421e-05
5.19525e-06
-2.29056e-06
-2.95623e-06
-1.27806e-06
8.46546e-09
3.71768e-07
2.40892e-07
5.03708e-08
-3.688e-08
-3.88992e-08
-1.47924e-08
1.67743e-09
5.46165e-09
3.10949e-09
4.35682e-10
-6.39505e-10
-5.60391e-10
-1.88996e-10
3.51217e-11
7.59949e-11
3.95229e-11
5.6448e-12
-4.77678e-12
-1.73302e-12
2.41017e-12
3.06118e-12
1.33392e-12
-4.81447e-13
-1.25758e-12
-1.09662e-12
-5.83165e-13
-1.78671e-14
1.02771
1.01391
0.817552
0.5
0.206389
0.0268058
-0.0388677
-0.0384381
-0.0184166
-0.00302402
0.00284105
0.00282245
0.00118552
4.2633e-05
-0.000296282
-0.000211922
-6.02234e-05
1.88442e-05
2.95095e-05
1.43558e-05
1.17969e-06
-3.31264e-06
-2.541e-06
-7.34809e-07
2.4659e-07
3.77211e-07
1.7883e-07
8.57142e-09
-4.67566e-08
-3.36117e-08
-8.5537e-09
4.26862e-09
5.39951e-09
2.34589e-09
-3.46907e-11
-7.23342e-10
-4.81873e-10
-1.20526e-10
4.79184e-11
5.59641e-11
1.67725e-11
-6.24413e-12
-6.28888e-12
1.77213e-12
6.57774e-12
5.99094e-12
2.8214e-12
1.80148e-14
-1.30818e-12
-1.13916e-12
1.0079
1.04117
0.991696
0.793611
0.5
0.223365
0.042154
-0.0343031
-0.0421139
-0.0239644
-0.00647534
0.00197761
0.00332499
0.00186777
0.000400612
-0.000245072
-0.000285991
-0.000129611
-8.12739e-06
3.15022e-05
2.39228e-05
7.25577e-06
-1.97863e-06
-3.44893e-06
-1.76137e-06
-1.84539e-07
3.9124e-07
3.18267e-07
9.93524e-08
-2.70761e-08
-4.76753e-08
-2.40682e-08
-2.00448e-09
5.85962e-09
4.59086e-09
1.38904e-09
-3.97591e-10
-6.60612e-10
-3.236e-10
-3.47037e-11
5.08163e-11
2.30037e-11
-1.42876e-11
-2.26317e-11
-1.0641e-11
3.1287e-12
9.25553e-12
8.18369e-12
4.32985e-12
5.95597e-14
0.998871
1.02303
1.04193
0.973194
0.776635
0.5
0.236308
0.0551561
-0.0291433
-0.0442026
-0.0286476
-0.0100134
0.000663016
0.00351519
0.00249279
0.000838178
-0.000110139
-0.000325109
-0.00020245
-4.98925e-05
2.37007e-05
3.12705e-05
1.49634e-05
1.26021e-06
-3.52124e-06
-2.80623e-06
-8.96015e-07
2.13502e-07
4.11967e-07
2.18709e-07
2.69023e-08
-4.69248e-08
-4.01398e-08
-1.33926e-08
2.87092e-09
5.98742e-09
3.27385e-09
5.1792e-10
-5.40755e-10
-4.56038e-10
-1.16328e-10
5.58318e-11
5.06621e-11
-9.5127e-12
-4.31904e-11
-3.83914e-11
-1.65654e-11
1.79395e-12
9.77333e-12
7.57528e-12
0.997793
1.00507
1.03244
1.03887
0.957846
0.763692
0.5
0.246668
0.0663827
-0.0238073
-0.0451887
-0.0325522
-0.0134733
-0.000959178
0.00341734
0.00301639
0.00131432
9.733e-05
-0.000320961
-0.000268331
-0.000102053
5.40097e-06
3.42592e-05
2.29965e-05
6.2179e-06
-2.43293e-06
-3.56995e-06
-1.78396e-06
-1.83324e-07
4.05498e-07
3.37165e-07
1.12488e-07
-2.34087e-08
-5.01973e-08
-2.78581e-08
-4.33188e-09
5.2277e-09
4.81815e-09
1.76106e-09
-1.36119e-10
-4.87391e-10
-1.76006e-10
9.6206e-11
1.40085e-10
5.4811e-11
-3.02617e-11
-6.1339e-11
-4.85265e-11
-2.20806e-11
2.95132e-12
0.999036
0.997843
1.01201
1.03844
1.0343
0.944844
0.753332
0.5
0.255249
0.0762288
-0.0184971
-0.0453946
-0.0357829
-0.0167686
-0.00277966
0.00306919
0.00341666
0.00179625
0.000362307
-0.000271062
-0.000319196
-0.000159502
-2.26983e-05
3.14482e-05
3.00039e-05
1.24139e-05
-5.01573e-08
-3.78029e-06
-2.69447e-06
-7.81324e-07
2.58689e-07
4.19428e-07
2.17977e-07
2.66603e-08
-4.72302e-08
-4.13162e-08
-1.49385e-08
1.62071e-09
5.21914e-09
2.86121e-09
3.27129e-10
-5.60557e-10
-3.32642e-10
9.1796e-11
2.6844e-10
2.04591e-10
6.3753e-11
-3.53572e-11
-6.73336e-11
-4.1198e-11
0.999961
0.997493
0.999962
1.01842
1.04211
1.02914
0.933617
0.744751
0.5
0.262537
0.0849758
-0.0133115
-0.0450396
-0.0384394
-0.0198576
-0.00471768
0.00251112
0.00368607
0.00225945
0.000669094
-0.000176905
-0.000349474
-0.000217239
-5.89605e-05
2.2113e-05
3.47797e-05
1.91931e-05
3.57786e-06
-3.2321e-06
-3.45403e-06
-1.52382e-06
-4.8083e-08
4.30562e-07
3.24121e-07
1.01238e-07
-2.57808e-08
-4.8538e-08
-2.64041e-08
-4.25808e-09
4.35024e-09
3.6503e-09
7.32163e-10
-8.26179e-10
-7.9642e-10
-1.72941e-10
2.79928e-10
3.69541e-10
2.38034e-10
7.37089e-11
-4.38858e-11
1.00021
0.998989
0.996922
1.00302
1.02396
1.0442
1.02381
0.923771
0.737463
0.5
0.268847
0.0928295
-0.00829713
-0.0442768
-0.0406094
-0.0227243
-0.00671456
0.00178129
0.00382595
0.00268654
0.001003
-4.24485e-05
-0.000355818
-0.000270828
-0.000101219
6.15708e-06
3.63677e-05
2.58328e-05
8.25177e-06
-1.80592e-06
-3.89509e-06
-2.3261e-06
-5.11937e-07
3.40958e-07
4.06164e-07
1.91111e-07
1.53852e-08
-4.53876e-08
-3.56363e-08
-1.08701e-08
2.96318e-09
4.67579e-09
1.5239e-09
-1.04686e-09
-1.58263e-09
-8.8879e-10
-6.27656e-11
3.62251e-10
4.03496e-10
1.76497e-10
1.00013
1
0.997981
0.997159
1.00648
1.02865
1.04519
1.0185
0.915024
0.731153
0.5
0.274394
0.0999444
-0.00347339
-0.0432147
-0.0423674
-0.025367
-0.00872811
0.000913719
0.00384278
0.00306586
0.00135109
0.000126998
-0.000336704
-0.000316604
-0.000147094
-1.60184e-05
3.41028e-05
3.16261e-05
1.36657e-05
5.30843e-07
-3.87268e-06
-3.08525e-06
-1.10648e-06
1.32022e-07
4.38095e-07
2.80643e-07
7.14704e-08
-3.1483e-08
-4.13689e-08
-1.7386e-08
1.71803e-09
6.7982e-09
3.71321e-09
-3.51063e-10
-2.17842e-09
-1.91948e-09
-8.7331e-10
-7.92017e-12
3.74349e-10
1.00003
1.00026
0.999477
0.997178
0.998022
1.01001
1.03255
1.04539
1.01331
0.90717
0.725606
0.5
0.279329
0.106439
0.00115474
-0.041932
-0.0437761
-0.0277924
-0.0107283
-6.2262e-05
0.00374582
0.00339021
0.00170247
0.000325544
-0.000292008
-0.000351728
-0.000194215
-4.36514e-05
2.76082e-05
3.59382e-05
1.94496e-05
3.73241e-06
-3.27393e-06
-3.68796e-06
-1.78047e-06
-1.96222e-07
4.00875e-07
3.53182e-07
1.33686e-07
-1.05527e-08
-4.57359e-08
-2.56303e-08
-6.27109e-10
9.79204e-09
8.00218e-09
2.38883e-09
-1.55489e-09
-2.61313e-09
-1.94483e-09
-4.67883e-10
0.999982
1.00016
1.00019
0.998814
0.996675
0.999337
1.01347
1.03578
1.04504
1.0083
0.900056
0.720671
0.5
0.283765
0.112406
0.00559006
-0.0404869
-0.0448875
-0.0300111
-0.0126941
-0.0011218
0.00354557
0.00365566
0.00204819
0.000547227
-0.00022263
-0.000374148
-0.000240369
-7.57464e-05
1.6764e-05
3.82353e-05
2.52002e-05
7.68144e-06
-2.02889e-06
-4.02264e-06
-2.46143e-06
-6.19997e-07
2.91881e-07
4.005e-07
1.96421e-07
1.39526e-08
-5.23077e-08
-3.9913e-08
-8.16653e-09
1.09158e-08
1.33902e-08
7.51154e-09
1.2552e-09
-2.10187e-09
-2.24282e-09
0.999983
1.00003
1.00026
0.999957
0.998132
0.996485
1.00096
1.01677
1.03844
1.04428
1.00347
0.893561
0.716235
0.5
0.287787
0.11792
0.00983944
-0.0389223
-0.0457452
-0.0320359
-0.0146108
-0.00224409
0.00325288
0.00386074
0.00238115
0.000786328
-0.000130177
-0.000382518
-0.000283585
-0.000111181
1.66162e-06
3.80915e-05
3.04976e-05
1.2188e-05
-1.29692e-07
-4.00374e-06
-3.07355e-06
-1.09913e-06
1.26353e-07
4.29269e-07
2.65419e-07
4.65618e-08
-6.00632e-08
-6.31548e-08
-2.605e-08
5.10837e-09
1.64347e-08
1.35224e-08
6.28215e-09
-5.85937e-10
0.999994
0.999978
1.00012
1.0003
0.999599
0.997507
0.996583
1.00278
1.01986
1.04061
1.04321
0.998845
0.887594
0.712213
0.5
0.291459
0.123039
0.0139117
-0.0372711
-0.0463857
-0.0338802
-0.0164687
-0.00341188
0.00287833
0.00400571
0.00269581
0.00103755
-1.67147e-05
-0.00037609
-0.000322173
-0.000148778
-1.7429e-05
3.51987e-05
3.49263e-05
1.69944e-05
2.35103e-06
-3.60388e-06
-3.57085e-06
-1.60292e-06
-7.83896e-08
4.54502e-07
3.58106e-07
1.04326e-07
-5.71016e-08
-9.08233e-08
-5.58768e-08
-1.22829e-08
1.22347e-08
1.7492e-08
9.02069e-09
1
0.999978
1.00001
1.00021
1.00025
0.999162
0.996984
0.996931
1.00472
1.02272
1.04237
1.04193
0.99441
0.88208
0.708541
0.5
0.294834
0.127814
0.0178165
-0.035558
-0.0468395
-0.0355575
-0.0182615
-0.00461091
0.00243195
0.00409205
0.002988
0.00129613
0.000115441
-0.00035459
-0.000354703
-0.000187323
-4.00563e-05
2.94094e-05
3.81331e-05
2.18173e-05
5.27367e-06
-2.8667e-06
-3.96576e-06
-2.14337e-06
-3.33122e-07
4.76692e-07
4.8944e-07
2.10762e-07
-2.05884e-08
-1.07345e-07
-9.09598e-08
-4.1441e-08
-2.29734e-09
1.5019e-08
1
0.999992
0.999971
1.00006
1.00029
1.00011
0.998686
0.996583
0.997489
1.00671
1.02537
1.04378
1.04049
0.990161
0.876961
0.705166
0.5
0.297951
0.132283
0.0215636
-0.0338022
-0.0471324
-0.0370806
-0.0199854
-0.00582946
0.00192307
0.00412206
0.00325469
0.00155785
0.000263859
-0.000318118
-0.000379988
-0.000225582
-6.55662e-05
2.08065e-05
3.99271e-05
2.64477e-05
8.50675e-06
-1.86534e-06
-4.31826e-06
-2.78662e-06
-7.00542e-07
4.54288e-07
6.47277e-07
3.77923e-07
7.30711e-08
-8.96525e-08
-1.15375e-07
-7.64652e-08
-1.49356e-08
1
1
0.99998
0.999981
1.00013
1.00033
0.999903
0.998204
0.996314
0.998219
1.00873
1.02779
1.04489
1.03892
0.986088
0.872186
0.702049
0.5
0.300845
0.136483
0.0251626
-0.0320184
-0.0472861
-0.0384617
-0.0216386
-0.00705792
0.00136021
0.00409856
0.00349374
0.00181899
0.000426031
-0.000267146
-0.000397141
-0.000262377
-9.3152e-05
9.72331e-06
4.03639e-05
3.08702e-05
1.20494e-05
-5.9958e-07
-4.66414e-06
-3.61402e-06
-1.28455e-06
2.9472e-07
7.73251e-07
5.8545e-07
2.30907e-07
-1.77678e-08
-1.1311e-07
-8.36294e-08
1
1
0.999995
0.99997
1.00001
1.0002
1.00032
0.999638
0.997741
0.996174
0.999086
1.01073
1.03001
1.04575
1.03727
0.982184
0.867717
0.699155
0.5
0.303542
0.14044
0.0286225
-0.0302183
-0.0473191
-0.0397121
-0.0232206
-0.00828846
0.000751095
0.00402468
0.00370372
0.00207621
0.000599288
-0.000202641
-0.000405788
-0.000296848
-0.000122081
-3.40386e-06
3.96963e-05
3.52975e-05
1.61215e-05
1.11751e-06
-4.9054e-06
-4.63431e-06
-2.17239e-06
-1.17362e-07
7.67838e-07
7.71486e-07
4.29558e-07
1.09856e-07
-8.02377e-08
1
1
1
0.999986
0.999968
1.00005
1.00027
1.00027
0.999331
0.997313
0.996157
1.00006
1.01269
1.03204
1.04639
1.03556
0.978436
0.863517
0.696458
0.5
0.306067
0.144179
0.0319521
-0.0284107
-0.0472471
-0.0408424
-0.0247317
-0.00951471
0.000102672
0.00390368
0.00388376
0.00232653
0.000780789
-0.000126176
-0.000406317
-0.00032881
-0.000152098
-1.83976e-05
3.81056e-05
4.00166e-05
2.11145e-05
3.68971e-06
-4.733e-06
-5.69064e-06
-3.35014e-06
-8.57945e-07
5.26608e-07
8.45338e-07
6.25988e-07
1.7664e-07
1
1
1
0.999999
0.999976
0.999976
1.0001
1.00032
1.00018
0.998997
0.996934
0.996254
1.00112
1.01461
1.03388
1.04684
1.0338
0.974837
0.85956
0.693933
0.5
0.308436
0.147722
0.0351594
-0.0266028
-0.0470839
-0.0418622
-0.0261733
-0.0107315
-0.000578649
0.00373921
0.00403382
0.00256766
0.000967876
-3.96835e-05
-0.000399843
-0.000358951
-0.000183786
-3.57786e-05
3.52749e-05
4.50368e-05
2.73493e-05
7.60933e-06
-3.66009e-06
-6.42938e-06
-4.64016e-06
-1.89615e-06
-9.91742e-09
7.49988e-07
6.12782e-07
1
1
1
1
0.999993
0.999969
0.999995
1.00016
1.00035
1.00004
0.998649
0.99661
0.996454
1.00224
1.01647
1.03556
1.04713
1.03202
0.971377
0.855821
0.691564
0.5
0.310668
0.151087
0.0382517
-0.0248002
-0.046841
-0.0427804
-0.0275469
-0.0119342
-0.00128658
0.00353572
0.00415536
0.00279887
0.00115906
5.54435e-05
-0.000387541
-0.000388477
-0.000218527
-5.697e-05
3.00382e-05
4.96941e-05
3.47157e-05
1.31821e-05
-1.19344e-06
-6.37688e-06
-5.70771e-06
-3.06631e-06
-7.99946e-07
5.2258e-07
1
1
1
1
1
0.999985
0.999966
1.00002
1.00022
1.00036
0.999873
0.998298
0.996344
0.996747
1.00341
1.01826
1.03708
1.04729
1.03022
0.968048
0.852278
0.689332
0.5
0.312776
0.154289
0.0412361
-0.023007
-0.0465285
-0.0436053
-0.0288543
-0.0131192
-0.00201484
0.00329878
0.00425193
0.003022
0.00135532
0.000159806
-0.00036929
-0.000418027
-0.000257783
-8.39544e-05
2.04096e-05
5.24655e-05
4.23808e-05
2.02228e-05
2.91334e-06
-5.11313e-06
-6.14585e-06
-4.16987e-06
-1.08973e-06
1
1
1
1
1
0.999999
0.999977
0.999969
1.00006
1.00027
1.00034
0.999674
0.997952
0.996139
0.997122
1.00461
1.01999
1.03846
1.04732
1.02841
0.964841
0.848913
0.687224
0.5
0.314771
0.157342
0.0441194
-0.0212266
-0.0461552
-0.0443448
-0.0300988
-0.0142842
-0.00275839
0.00303402
0.00432857
0.00324156
0.0015609
0.000277268
-0.000342137
-0.000446148
-0.000301792
-0.000118317
4.15832e-06
5.12029e-05
4.87704e-05
2.78914e-05
8.44098e-06
-2.44223e-06
-5.80666e-06
-3.90327e-06
1
1
1
1
1
1
0.999994
0.99997
0.999978
1.0001
1.00032
1.00029
0.999453
0.997619
0.995994
0.997568
1.00583
1.02164
1.03971
1.04725
1.0266
0.961748
0.845711
0.685229
0.5
0.316665
0.16026
0.046908
-0.0194615
-0.04573
-0.0450085
-0.0312867
-0.0154317
-0.00351651
0.00274396
0.0043891
0.00346273
0.00178229
0.000414939
-0.000299571
-0.000468109
-0.000348224
-0.00015999
-2.01967e-05
4.37967e-05
5.19163e-05
3.47861e-05
1.46791e-05
1.32806e-06
-4.47676e-06
1
1
1
1
1
1
1
0.999988
0.999965
0.999994
1.00015
1.00035
1.00022
0.999214
0.997304
0.995908
0.998077
1.00706
1.02322
1.04084
1.04708
1.0248
0.958764
0.842658
0.683335
0.5
0.318466
0.163054
0.0496079
-0.0177142
-0.0452622
-0.0456088
-0.0324301
-0.0165718
-0.00429713
0.00242319
0.00443133
0.00368718
0.00202499
0.000581079
-0.000232473
-0.000475901
-0.000391534
-0.000206292
-5.23769e-05
2.9039e-05
5.00742e-05
3.92865e-05
2.08344e-05
2.7431e-06
1
1
1
1
1
1
1
1
0.999981
0.999964
1.00002
1.00019
1.00037
1.00013
0.998962
0.997012
0.995878
0.99864
1.00829
1.02473
1.04186
1.04684
1.02301
0.955881
0.839741
0.681533
0.499999
0.320183
0.165733
0.0522258
-0.0159855
-0.0447601
-0.0461597
-0.0335465
-0.0177237
-0.00511969
0.00205412
0.00444186
0.0039077
0.00228866
0.000781126
-0.000131938
-0.000459896
-0.000423609
-0.000251819
-8.98102e-05
7.33036e-06
4.22362e-05
4.10619e-05
1.92082e-05
1
1
1
1
1
1
1
1
0.999996
0.999974
0.999966
1.00004
1.00024
1.00038
1.00002
0.998704
0.996745
0.995901
0.999249
1.00951
1.02617
1.04278
1.04653
1.02123
0.953095
0.836948
0.679814
0.499995
0.321822
0.168311
0.0547738
-0.014268
-0.0442236
-0.0466693
-0.0346524
-0.0189116
-0.00601322
0.00160647
0.00439367
0.00410438
0.00256252
0.0010132
6.8302e-06
-0.000411799
-0.00043568
-0.000289432
-0.00012785
-1.93632e-05
3.00037e-05
3.35632e-05
1
1
1
1
1
1
1
1
1
0.999992
0.999968
0.999972
1.00008
1.00028
1.00038
0.999885
0.998442
0.996506
0.995975
0.999897
1.01073
1.02755
1.0436
1.04616
1.01947
0.950398
0.834268
0.678165
0.499985
0.323392
0.170807
0.0572793
-0.0125333
-0.0436298
-0.0471256
-0.03575
-0.0201524
-0.0070074
0.00104321
0.00424891
0.00424474
0.00282358
0.00126511
0.000181094
-0.000327858
-0.000420915
-0.000312006
-0.000160953
-4.75146e-05
1.99856e-05
1
1
1
1
1
1
1
1
1
1
0.999986
0.999964
0.999983
1.00011
1.00032
1.00035
0.999736
0.998181
0.996296
0.996096
1.00058
1.01193
1.02885
1.04434
1.04573
1.01772
0.947784
0.831686
0.676574
0.499966
0.324909
0.173258
0.0597959
-0.0107184
-0.0429169
-0.0474786
-0.0368093
-0.0214397
-0.00811782
0.00033243
0.00396766
0.00428918
0.0030391
0.00151444
0.000379151
-0.000211058
-0.000376739
-0.000314103
-0.000187188
-4.59503e-05
1
1
1
1
1
1
1
1
1
1
0.999999
0.999981
0.999962
0.999998
1.00015
1.00035
1.00032
0.999574
0.997923
0.996116
0.996262
1.00129
1.01312
1.0301
1.045
1.04526
1.016
0.945246
0.829188
0.675026
0.499937
0.326394
0.175717
0.0624075
-0.00871821
-0.0419739
-0.0476279
-0.0377536
-0.0227279
-0.00933028
-0.000537923
0.00352039
0.00420063
0.00317314
0.00173227
0.000581715
-7.14964e-05
-0.000304883
-0.000301431
-0.000154656
1
1
1
1
1
1
1
1
1
1
1
0.999996
0.999975
0.999962
1.00002
1.00019
1.00038
1.00027
0.9994
0.997672
0.995967
0.996468
1.00202
1.01428
1.03127
1.04559
1.04477
1.01431
0.942783
0.826753
0.67349
0.499874
0.327855
0.178236
0.065214
-0.00639565
-0.0406463
-0.0474237
-0.0384563
-0.0239247
-0.0105905
-0.00154823
0.00290002
0.00395541
0.00319531
0.00188947
0.000765508
7.71728e-05
-0.000221499
-0.000233778
1
1
1
1
1
1
1
1
1
1
1
1
0.999992
0.999969
0.999965
1.00004
1.00023
1.0004
1.0002
0.999217
0.997432
0.995851
0.996711
1.00276
1.01541
1.03239
1.04613
1.04427
1.01268
0.940381
0.824327
0.67188
0.499689
0.329238
0.180825
0.0682963
-0.00361159
-0.0387612
-0.0466865
-0.0387542
-0.0248983
-0.011805
-0.00264311
0.00212899
0.00355149
0.00308886
0.00196322
0.000909623
0.000216445
-0.000156933
1
1
1
1
1
1
1
1
1
1
1
1
1
0.999988
0.999965
0.999971
1.00007
1.00026
1.0004
1.00012
0.99903
0.997208
0.995766
0.996979
1.00349
1.0165
1.03346
1.04668
1.04384
1.01112
0.937977
0.821755
0.669979
0.499156
0.330369
0.183399
0.0716668
-0.000270436
-0.0361691
-0.0452439
-0.0384773
-0.0254989
-0.0128541
-0.00373762
0.00125849
0.00301138
0.00285541
0.00194113
0.00101439
0.000187741
1
1
1
1
1
1
1
1
1
1
1
1
1
1
0.999983
0.999962
0.99998
1.00009
1.0003
1.0004
1.00003
0.998846
0.997003
0.995702
0.997247
1.0042
1.01757
1.03456
1.04732
1.04352
1.00957
0.935367
0.818683
0.667342
0.497834
0.330886
0.185722
0.0752233
0.00363383
-0.0327898
-0.0429739
-0.0374866
-0.0255887
-0.0136147
-0.0047322
0.000359986
0.00237931
0.00250958
0.00186667
0.000785353
1
1
1
1
1
1
1
1
1
1
1
1
1
1
0.999997
0.999978
0.999961
0.999992
1.00012
1.00032
1.00039
0.999945
0.998672
0.996807
0.995628
0.997484
1.00489
1.01869
1.03582
1.04817
1.04331
1.00783
0.932078
0.814442
0.663222
0.495018
0.33022
0.187396
0.0787261
0.00798795
-0.0286479
-0.0398419
-0.0357099
-0.0250738
-0.0139859
-0.00553225
-0.000487048
0.00170257
0.00214416
0.00139987
1
1
1
1
1
1
1
1
1
1
1
1
1
1
1
0.999994
0.999974
0.999962
1
1.00015
1.00035
1.00038
0.999864
0.998501
0.996588
0.995503
0.997684
1.00564
1.02002
1.03742
1.04929
1.043
1.00533
0.927239
0.807977
0.656545
0.489759
0.327624
0.187883
0.0818139
0.0125587
-0.0238851
-0.0359204
-0.0331635
-0.0239261
-0.0139098
-0.00606442
-0.00122191
0.00109054
0.00157738
1
1
1
1
1
1
1
1
1
1
1
1
1
1
1
1
0.999992
0.999972
0.999963
1.00001
1.00017
1.00038
1.00039
0.999789
0.998299
0.996293
0.995302
0.997913
1.00663
1.02181
1.03949
1.05052
1.042
1.00104
0.919524
0.797868
0.645998
0.480977
0.322279
0.186592
0.0840566
0.0170242
-0.0187454
-0.0313849
-0.0299556
-0.0221919
-0.0133811
-0.00629609
-0.00179425
0.000794518
1
1
1
1
1
1
1
1
1
1
1
1
1
1
1
1
1
0.99999
0.999968
0.99996
1.00002
1.0002
1.00042
1.0004
0.999688
0.998008
0.995882
0.995078
0.998362
1.00814
1.02426
1.04193
1.05127
1.03919
0.993429
0.907208
0.782474
0.630208
0.467634
0.313446
0.182986
0.0850345
0.0210281
-0.0135365
-0.0264867
-0.0262696
-0.0199833
-0.0124387
-0.0063309
-0.00127534
1
1
1
1
1
1
1
1
1
1
1
1
1
1
1
1
1
1
0.999987
0.99996
0.999954
1.00004
1.00025
1.0005
1.00041
0.999497
0.99757
0.995386
0.995013
0.999342
1.01045
1.02735
1.0442
1.05036
1.03284
0.980505
0.888374
0.760194
0.608007
0.448955
0.300621
0.1767
0.0844212
0.0242438
-0.00857897
-0.0215127
-0.022337
-0.0174278
-0.0114077
-0.00448322
1
1
1
1
1
1
1
1
1
1
1
1
1
1
0.999999
1
1
1.00001
1
0.99998
0.999947
0.999951
1.00007
1.00034
1.00057
1.00034
0.999149
0.996997
0.994973
0.995434
1.00118
1.01363
1.0306
1.0451
1.04596
1.02078
0.960118
0.861236
0.729789
0.578684
0.424613
0.283665
0.167621
0.0820472
0.0264294
-0.00415483
-0.0167481
-0.0183431
-0.0150614
-0.00805108
1
1
1
1
1
1
1
1
1
1
1
1
1
1
1
0.999999
1
1
1.00001
0.999998
0.999967
0.999934
0.999966
1.00014
1.00044
1.00059
1.00012
0.998636
0.996435
0.994966
0.996705
1.00402
1.01725
1.03285
1.04274
1.03572
1.00064
0.930319
0.82451
0.690667
0.542182
0.394838
0.26286
0.155929
0.0779314
0.0274646
-0.000480904
-0.0123589
-0.0149176
-0.0106434
1
1
1
1
1
1
1
1
1
1
1
1
1
1
1
0.999999
0.999999
1
1.00001
1.00001
0.999988
0.999952
0.999935
1.00001
1.00023
1.0005
1.00047
0.999724
0.998085
0.996195
0.995748
0.999019
1.00752
1.0202
1.03215
1.03464
1.0171
0.970312
0.889772
0.777727
0.643079
0.499179
0.360421
0.238881
0.142068
0.0722759
0.027346
0.00239632
-0.00885333
-0.0106702
1
1
1
1
1
1
1
1
1
1
1
1
1
1
1
0.999999
0.999999
1
1
1.00001
1
0.999976
0.999948
0.999963
1.00008
1.00029
1.00044
1.0002
0.99927
0.997786
0.99666
0.997547
1.0021
1.0106
1.02054
1.02594
1.0181
0.987818
0.928375
0.838085
0.72141
0.588146
0.451021
0.322622
0.212709
0.126685
0.0654161
0.0262336
0.00435845
-0.00672433
1
1
1
1
1
1
1
1
1
1
1
1
1
1
1
1
1
1
1
1
1
0.999992
0.999973
0.999966
1.00001
1.00012
1.00026
1.00025
0.999861
0.999026
0.998116
0.998077
1.00013
1.00493
1.01136
1.01567
1.01141
0.990684
0.946347
0.874458
0.775982
0.657065
0.527737
0.399548
0.282987
0.185489
0.110524
0.057761
0.0246552
0.00200181
1
1
1
1
1
1
1
1
1
1
1
1
1
1
1
1
1
1
1
1
1
0.999998
0.999993
0.99999
0.999997
1.00003
1.00008
1.0001
1
0.999717
0.999353
0.999321
1.00025
1.00255
1.00565
1.00719
1.00268
0.985981
0.950733
0.892269
0.809391
0.705256
0.586998
0.464214
0.346845
0.243153
0.158393
0.0942396
0.050681
0.0154778
1
1
1
1
1
1
1
1
1
1
1
1
1
1
1
1
1
1
1
0.999999
0.999997
0.999997
1
1.00001
1.00002
1
0.999965
0.999927
0.999912
0.999954
1.00011
1.00049
1.00122
1.00226
1.00297
1.00164
0.995111
0.978873
0.947856
0.897747
0.826453
0.735162
0.628549
0.514003
0.400121
0.294964
0.204646
0.132217
0.0800754
0.0327748
1
1
1
1
1
1
1
1
1
1
1
1
1
1
1
1
1
1
1
0.999999
0.999994
0.999994
1
1.00003
1.00004
1.00001
0.999919
0.999802
0.999757
0.999927
1.00043
1.00127
1.00227
1.00294
1.00233
0.998823
0.989947
0.972376
0.942334
0.896397
0.832513
0.750925
0.654607
0.548999
0.441073
0.338015
0.245976
0.168659
0.110437
0.0526783
1
1
1
1
1
1
1
1
1
1
1
1
1
1
1
1
1
1
1
0.999999
0.999993
0.999991
1
1.00003
1.00005
1.00003
0.999915
0.999739
0.999631
0.999811
1.00048
1.00166
1.00302
1.00378
1.00266
0.997855
0.987119
0.967805
0.937126
0.892599
0.832674
0.757384
0.668767
0.570862
0.469195
0.369864
0.278579
0.199134
0.137283
0.0716185
1
1
1
1
1
1
1
1
1
1
1
1
1
1
1
1
1
1
1
1
0.999994
0.999989
0.999998
1.00003
1.00006
1.00005
0.999937
0.999725
0.999544
0.999658
1.00036
1.00176
1.00351
1.00467
1.00359
0.99815
0.985933
0.96458
0.932051
0.886899
0.828534
0.757475
0.675515
0.585725
0.492208
0.399589
0.312497
0.234085
0.171051
0.0986881
)
;

boundaryField
{
    upperWall
    {
        type            zeroGradient;
    }
    outlet
    {
        type            zeroGradient;
    }
    inlet
    {
        type            fixedValue;
        value           uniform 1;
    }
    lowerWall
    {
        type            fixedValue;
        value           uniform 0;
    }
    frontAndBack
    {
        type            empty;
    }
}


// ************************************************************************* //
