/*--------------------------------*- C++ -*----------------------------------*\
  =========                 |
  \\      /  F ield         | OpenFOAM: The Open Source CFD Toolbox
   \\    /   O peration     | Website:  https://openfoam.org
    \\  /    A nd           | Version:  7
     \\/     M anipulation  |
\*---------------------------------------------------------------------------*/
FoamFile
{
    version     2.0;
    format      ascii;
    class       volScalarField;
    location    "0.1";
    object      T;
}
// * * * * * * * * * * * * * * * * * * * * * * * * * * * * * * * * * * * * * //

dimensions      [0 0 0 1 0 0 0];

internalField   nonuniform List<scalar> 
2500
(
0.5
0.0665032
-0.03566
-0.0281373
-0.00911141
-0.000565385
0.000987312
0.000595682
0.000194659
3.5499e-05
-1.63666e-06
-4.2676e-06
-2.06652e-06
-7.03239e-07
-1.91245e-07
-4.10549e-08
-5.55458e-09
5.37311e-10
7.75105e-10
3.80242e-10
1.43329e-10
4.67601e-11
1.36906e-11
3.62085e-12
8.49844e-13
1.65735e-13
2.02133e-14
-2.83556e-15
-3.33334e-15
-1.64062e-15
-6.42874e-16
-2.23802e-16
-7.19499e-17
-2.17205e-17
-6.19753e-18
-1.67085e-18
-4.22395e-19
-9.81741e-20
-1.99787e-20
-3.03893e-21
-3.552e-23
2.37637e-22
1.3858e-22
5.89493e-23
2.19182e-23
7.52833e-24
2.44692e-24
7.61942e-25
2.28699e-25
6.31618e-26
0.932297
0.499732
0.150425
-0.00298165
-0.0311761
-0.0186541
-0.00594937
-0.000684116
0.000375342
0.000272016
0.000102446
2.7159e-05
4.79668e-06
8.78365e-08
-3.82467e-07
-2.14756e-07
-8.31999e-08
-2.66906e-08
-7.39937e-09
-1.75676e-09
-3.29106e-10
-3.01558e-11
1.18081e-11
9.23922e-12
4.16368e-12
1.54193e-12
5.0868e-13
1.53855e-13
4.30521e-14
1.10987e-14
2.58026e-15
5.08523e-16
6.69149e-17
-5.64463e-18
-8.95008e-18
-4.60931e-18
-1.85832e-18
-6.64496e-19
-2.19984e-19
-6.87269e-20
-2.04483e-20
-5.81455e-21
-1.57899e-21
-4.07257e-22
-9.84884e-23
-2.17068e-23
-4.05447e-24
-4.79112e-25
6.79517e-26
1.07712e-25
1.03516
0.857519
0.502624
0.187972
0.0229209
-0.0217236
-0.017234
-0.00684111
-0.00162848
-0.000113709
0.000107626
6.91612e-05
2.71855e-05
8.33399e-06
2.05171e-06
3.65879e-07
1.55051e-08
-2.46082e-08
-1.51656e-08
-6.29337e-09
-2.18044e-09
-6.67131e-10
-1.82733e-10
-4.41893e-11
-8.87054e-12
-1.13361e-12
1.36709e-13
1.77168e-13
8.87948e-14
3.50601e-14
1.22258e-14
3.91591e-15
1.17066e-15
3.28181e-16
8.59243e-17
2.06812e-17
4.39289e-18
7.26434e-19
3.67908e-20
-4.1488e-20
-2.69023e-20
-1.18342e-20
-4.46699e-21
-1.54371e-21
-5.01723e-22
-1.5539e-22
-4.61643e-23
-1.31911e-23
-3.62398e-24
-8.4444e-25
1.03016
1.02224
0.799347
0.449162
0.164736
0.0254704
-0.0117326
-0.0108866
-0.00485137
-0.0015021
-0.00032129
-2.45532e-05
1.87727e-05
1.30857e-05
5.59166e-06
1.9162e-06
5.57558e-07
1.36853e-07
2.58941e-08
2.07651e-09
-1.20127e-09
-8.76881e-10
-3.91968e-10
-1.44727e-10
-4.74451e-11
-1.41509e-11
-3.85414e-12
-9.44537e-13
-1.98186e-13
-2.97471e-14
4.99285e-16
2.91803e-15
1.63178e-15
6.80391e-16
2.47522e-16
8.25659e-17
2.57861e-17
7.6076e-18
2.12417e-18
5.58766e-19
1.36599e-19
3.00428e-20
5.43663e-21
5.26537e-22
-1.66916e-22
-1.41366e-22
-6.68828e-23
-2.62837e-23
-9.35152e-24
-3.12105e-24
1.01253
1.05962
0.953165
0.653691
0.325355
0.110791
0.019543
-0.00406025
-0.00514269
-0.00262154
-0.000973412
-0.00028643
-6.42018e-05
-7.6544e-06
2.11954e-06
2.0151e-06
9.66601e-07
3.66054e-07
1.19466e-07
3.43641e-08
8.60809e-09
1.7559e-09
2.12288e-10
-4.04428e-11
-4.3141e-11
-2.12941e-11
-8.38857e-12
-2.91727e-12
-9.27376e-13
-2.72873e-13
-7.42964e-14
-1.84605e-14
-4.02053e-15
-6.75366e-16
-3.20493e-17
4.15839e-17
2.69107e-17
1.18854e-17
4.49632e-18
1.55206e-18
5.01677e-19
1.53688e-19
4.4848e-20
1.24677e-20
3.28591e-21
8.10924e-22
1.82289e-22
3.47785e-23
4.29034e-24
-1.37677e-24
1.0036
1.0528
1.00216
0.762419
0.44372
0.195914
0.0641721
0.0135671
-7.88004e-05
-0.00183187
-0.00115187
-0.000501798
-0.000177704
-5.28791e-05
-1.28444e-05
-2.1452e-06
4.81744e-08
2.4852e-07
1.43357e-07
6.04783e-08
2.17444e-08
6.96858e-09
2.01384e-09
5.19204e-10
1.13981e-10
1.79204e-11
-1.89688e-13
-1.78684e-12
-1.02991e-12
-4.37863e-13
-1.61356e-13
-5.4182e-14
-1.69149e-14
-4.94405e-15
-1.35043e-15
-3.40458e-16
-7.66895e-17
-1.40678e-17
-1.31442e-18
4.93745e-19
4.04844e-19
1.91629e-19
7.5499e-20
2.69108e-20
8.96235e-21
2.83145e-21
8.54844e-22
2.47319e-22
6.85341e-23
1.58425e-23
1.00118
1.04246
1.00732
0.803059
0.507639
0.255994
0.1047
0.0347413
0.0087919
0.00114848
-0.000400545
-0.000408152
-0.000214206
-8.81514e-05
-3.09599e-05
-9.47553e-06
-2.48757e-06
-5.16152e-07
-5.41379e-08
2.04693e-08
1.79193e-08
8.74679e-09
3.47258e-09
1.21834e-09
3.88735e-10
1.1366e-10
3.02137e-11
7.07681e-12
1.32449e-12
1.1518e-13
-5.65388e-14
-4.42202e-14
-2.08412e-14
-8.18824e-15
-2.89813e-15
-9.52e-16
-2.94001e-16
-8.57218e-17
-2.35396e-17
-6.02337e-18
-1.39922e-18
-2.75705e-19
-3.53685e-20
4.08475e-21
5.56259e-21
2.88748e-21
1.19107e-21
4.38582e-22
1.50129e-22
4.70785e-23
1.00106
1.03739
1.00293
0.81268
0.534122
0.288917
0.132434
0.0526212
0.0181507
0.00525206
0.00112305
6.34549e-05
-0.000101746
-7.48899e-05
-3.64699e-05
-1.46962e-05
-5.19875e-06
-1.64265e-06
-4.6063e-07
-1.10183e-07
-1.94551e-08
-4.85461e-10
1.70565e-09
1.09025e-09
4.91084e-10
1.88834e-10
6.55302e-11
2.09621e-11
6.21905e-12
1.70248e-12
4.2125e-13
8.89672e-14
1.30148e-14
-6.68279e-16
-1.62473e-15
-9.0319e-16
-3.8445e-16
-1.4394e-16
-4.96246e-17
-1.60694e-17
-4.93143e-18
-1.43812e-18
-3.97538e-19
-1.03231e-19
-2.46628e-20
-5.1558e-21
-8.01843e-22
-6.08654e-24
6.8273e-23
4.64287e-23
1.0013
1.03583
0.999526
0.81288
0.542473
0.303569
0.147828
0.0645728
0.0256119
0.00917218
0.00290287
0.000771005
0.000144496
-1.43909e-06
-1.90607e-05
-1.24274e-05
-5.86266e-06
-2.35375e-06
-8.44364e-07
-2.75199e-07
-8.14621e-08
-2.14894e-08
-4.76026e-09
-7.02504e-10
5.92235e-11
1.08555e-10
6.05928e-11
2.61242e-11
9.87622e-12
3.41552e-12
1.09942e-12
3.31271e-13
9.31731e-14
2.41358e-14
5.56263e-15
1.03216e-15
8.93843e-17
-4.42883e-17
-3.49093e-17
-1.66802e-17
-6.6785e-18
-2.42198e-18
-8.20209e-19
-2.63105e-19
-8.04731e-20
-2.35123e-20
-6.54733e-21
-1.72461e-21
-4.23286e-22
-7.17273e-23
1.00144
1.03555
0.998037
0.811679
0.54422
0.308948
0.155038
0.0712724
0.0305052
0.0121563
0.00447684
0.00150492
0.000450914
0.000113675
1.96712e-05
-1.00018e-06
-3.0895e-06
-1.92731e-06
-9.01478e-07
-3.6416e-07
-1.32909e-07
-4.4589e-08
-1.38e-08
-3.90794e-09
-9.8552e-10
-2.04726e-10
-2.47582e-11
5.78013e-12
6.10721e-12
3.17656e-12
1.33641e-12
5.01115e-13
1.73488e-13
5.6307e-14
1.72302e-14
4.96612e-15
1.33677e-15
3.28944e-16
7.01485e-17
1.08211e-17
-1.66553e-19
-1.12558e-18
-6.59404e-19
-2.89136e-19
-1.11188e-19
-3.94391e-20
-1.31908e-20
-4.20535e-21
-1.28501e-21
-3.42027e-22
1.00149
1.03556
0.997555
0.810898
0.544221
0.310542
0.157946
0.0745282
0.0332669
0.014082
0.00563062
0.0021155
0.00074151
0.000239507
6.95621e-05
1.71321e-05
2.91529e-06
-1.48765e-07
-4.53244e-07
-2.83127e-07
-1.33381e-07
-5.45788e-08
-2.03055e-08
-6.99763e-09
-2.2482e-09
-6.71919e-10
-1.84473e-10
-4.502e-11
-8.88988e-12
-8.76442e-13
3.69875e-13
3.1886e-13
1.59622e-13
6.6299e-14
2.47984e-14
8.61947e-15
2.82381e-15
8.77132e-16
2.58429e-16
7.18519e-17
1.86015e-17
4.34878e-18
8.46384e-19
9.57825e-20
-2.27646e-20
-2.27875e-20
-1.15545e-20
-4.79548e-21
-1.79223e-21
-6.05997e-22
1.00151
1.0356
0.997438
0.810558
0.543992
0.310879
0.158958
0.075927
0.0346457
0.0151734
0.00636473
0.00254929
0.000971665
0.000350801
0.000119115
3.7581e-05
1.07613e-05
2.64875e-06
4.68245e-07
-6.96104e-09
-6.08166e-08
-3.95797e-08
-1.90348e-08
-7.93497e-09
-3.01429e-09
-1.06546e-09
-3.53532e-10
-1.10287e-10
-3.21779e-11
-8.64858e-12
-2.06424e-12
-3.93699e-13
-3.2692e-14
2.00424e-14
1.57905e-14
7.75722e-15
3.20616e-15
1.20102e-15
4.19946e-16
1.38958e-16
4.37865e-17
1.31588e-17
3.76105e-18
1.01388e-18
2.53087e-19
5.60804e-20
9.73509e-21
5.3744e-22
-5.97842e-22
-4.63847e-22
1.00151
1.03562
0.997421
0.810441
0.543845
0.310892
0.159256
0.0764633
0.0352652
0.0157291
0.0067817
0.00282186
0.00113094
0.000435461
0.000160566
5.6443e-05
1.8788e-05
5.85552e-06
1.67291e-06
4.18057e-07
7.92895e-08
3.05764e-09
-7.37314e-09
-5.25846e-09
-2.61999e-09
-1.1194e-09
-4.35071e-10
-1.57623e-10
-5.38278e-11
-1.73996e-11
-5.3183e-12
-1.52659e-12
-4.04771e-13
-9.5392e-14
-1.7886e-14
-1.3629e-15
9.81491e-16
7.49989e-16
3.66521e-16
1.51638e-16
5.70609e-17
2.01007e-17
6.72046e-18
2.14688e-18
6.5687e-19
1.92281e-19
5.3576e-20
1.40495e-20
3.3922e-21
5.30152e-22
1.00151
1.03562
0.997423
0.810407
0.543779
0.310858
0.159324
0.0766464
0.0355184
0.0159872
0.00699711
0.00297679
0.0012299
0.000492749
0.000191056
7.15187e-05
2.57678e-05
8.89869e-06
2.9274e-06
9.08186e-07
2.60911e-07
6.68042e-08
1.37287e-08
1.26895e-09
-7.69059e-10
-6.58918e-10
-3.46988e-10
-1.53108e-10
-6.10644e-11
-2.26799e-11
-7.95444e-12
-2.65148e-12
-8.41451e-13
-2.53616e-13
-7.20415e-14
-1.89616e-14
-4.44987e-15
-8.34705e-16
-6.55099e-17
4.44061e-17
3.43607e-17
1.68902e-17
7.02918e-18
2.66375e-18
9.465e-19
3.19839e-19
1.03526e-19
3.21992e-20
9.63285e-21
2.44488e-21
1.00151
1.03562
0.997426
0.810399
0.543755
0.310834
0.15933
0.0767011
0.0356129
0.0160976
0.00709966
0.00305769
0.00128612
0.000527985
0.000211292
8.2297e-05
3.11392e-05
1.14205e-05
4.04861e-06
1.38208e-06
4.5184e-07
1.40243e-07
4.07043e-08
1.07196e-08
2.37797e-09
3.30193e-10
-5.75521e-11
-7.64741e-11
-4.39744e-11
-2.02607e-11
-8.32902e-12
-3.17544e-12
-1.14279e-12
-3.91642e-13
-1.28304e-13
-4.01939e-14
-1.20025e-14
-3.38926e-15
-8.90035e-16
-2.09492e-16
-3.9909e-17
-3.53629e-18
1.86176e-18
1.52215e-18
7.60435e-19
3.19782e-19
1.2232e-19
4.38896e-20
1.49993e-20
4.57012e-21
1.00151
1.03563
0.997428
0.810398
0.543747
0.310823
0.159326
0.0767145
0.0356451
0.0161414
0.00714506
0.00309694
0.00131572
0.000547983
0.000223625
8.93316e-05
3.48872e-05
1.33001e-05
4.94121e-06
1.78534e-06
6.25791e-07
2.12084e-07
6.91648e-08
2.1546e-08
6.33286e-09
1.71606e-09
4.07034e-10
7.17346e-11
5.80376e-13
-7.87567e-12
-5.27545e-12
-2.5831e-12
-1.10218e-12
-4.32519e-13
-1.59772e-13
-5.62049e-14
-1.89394e-14
-6.1276e-15
-1.90255e-15
-5.64902e-16
-1.59137e-16
-4.18639e-17
-9.93938e-18
-1.94464e-18
-2.02657e-19
7.13391e-20
6.51831e-20
3.34695e-20
1.42832e-20
5.37928e-21
1.00151
1.03563
0.997429
0.810398
0.543745
0.310818
0.159323
0.0767166
0.0356549
0.0161575
0.00716387
0.00311478
0.00133029
0.000558572
0.000230614
9.3583e-05
3.72975e-05
1.45844e-05
5.58855e-06
2.09566e-06
7.67861e-07
2.74413e-07
9.54372e-08
3.22072e-08
1.05035e-08
3.29007e-09
9.80116e-10
2.72848e-10
6.84636e-11
1.40754e-11
1.477e-12
-6.32318e-13
-5.86209e-13
-3.14893e-13
-1.41049e-13
-5.72447e-14
-2.17415e-14
-7.84832e-15
-2.71472e-15
-9.03479e-16
-2.89709e-16
-8.94226e-17
-2.64732e-17
-7.46046e-18
-1.9722e-18
-4.74285e-19
-9.59678e-20
-1.17787e-20
2.36656e-21
3.04559e-21
1.00151
1.03563
0.997429
0.810398
0.543744
0.310816
0.159321
0.0767164
0.0356575
0.016163
0.0071712
0.00312243
0.00133705
0.000563847
0.00023433
9.59873e-05
3.8743e-05
1.53995e-05
6.02278e-06
2.31544e-06
8.74051e-07
3.23575e-07
1.17314e-07
4.15876e-08
1.4387e-08
4.84467e-09
1.5825e-09
4.989e-10
1.50616e-10
4.29684e-11
1.12948e-11
2.58131e-12
4.21906e-13
-1.44837e-14
-5.73851e-14
-3.61901e-14
-1.7356e-14
-7.34366e-15
-2.87753e-15
-1.06697e-15
-3.78562e-16
-1.29297e-16
-4.26382e-17
-1.3587e-17
-4.17884e-18
-1.23612e-18
-3.49215e-19
-9.29776e-20
-2.27562e-20
-3.62789e-21
1.00151
1.03563
0.997429
0.810398
0.543744
0.310816
0.159321
0.076716
0.0356581
0.0161647
0.00717388
0.00312553
0.00134003
0.000566335
0.000236199
9.727e-05
3.95587e-05
1.58849e-05
6.29518e-06
2.4605e-06
9.4772e-07
3.59404e-07
1.34059e-07
4.91297e-08
1.76683e-08
6.22629e-09
2.14638e-09
7.22235e-10
2.36524e-10
7.50756e-11
2.29536e-11
6.69221e-12
1.82767e-12
4.50681e-13
9.1e-14
9.15821e-15
-4.22047e-15
-3.80962e-15
-2.03242e-15
-9.09001e-16
-3.697e-16
-1.4117e-16
-5.14042e-17
-1.8e-17
-6.08933e-18
-1.99467e-18
-6.32952e-19
-1.9432e-19
-5.75938e-20
-1.42874e-20
1.00151
1.03563
0.997429
0.810398
0.543744
0.310816
0.15932
0.0767157
0.0356581
0.0161652
0.0071748
0.00312672
0.00134127
0.000567453
0.000237092
9.79197e-05
3.99949e-05
1.61583e-05
6.45635e-06
2.55055e-06
9.95647e-07
3.83811e-07
1.45996e-07
5.47541e-08
2.02278e-08
7.35387e-09
2.6281e-09
9.22112e-10
3.17171e-10
1.06747e-10
3.50677e-11
1.12066e-11
3.46665e-12
1.03017e-12
2.90336e-13
7.57574e-14
1.73317e-14
2.91577e-15
-2.34615e-17
-3.41849e-16
-2.22063e-16
-1.07694e-16
-4.59386e-17
-1.8151e-17
-6.79656e-18
-2.44053e-18
-8.45987e-19
-2.84135e-19
-9.2705e-20
-2.65892e-20
1.00151
1.03563
0.997429
0.810398
0.543744
0.310816
0.15932
0.0767156
0.0356581
0.0161653
0.00717509
0.00312715
0.00134177
0.000567932
0.0002375
9.82338e-05
4.02172e-05
1.63046e-05
6.54688e-06
2.6035e-06
1.02512e-06
3.99486e-07
1.53997e-07
5.86857e-08
2.20933e-08
8.21048e-09
3.00957e-09
1.08714e-09
3.86632e-10
1.35225e-10
4.64513e-11
1.56468e-11
5.1575e-12
1.65896e-12
5.18691e-13
1.56719e-13
4.53338e-14
1.23519e-14
3.06823e-15
6.39886e-16
7.85217e-17
-1.9699e-17
-2.16725e-17
-1.20317e-17
-5.48459e-18
-2.26099e-18
-8.73997e-19
-3.22335e-19
-1.14564e-19
-3.65013e-20
1.00151
1.03563
0.997429
0.810398
0.543744
0.310816
0.15932
0.0767156
0.035658
0.0161654
0.00717518
0.0031273
0.00134196
0.000568129
0.000237679
9.83793e-05
4.03256e-05
1.63796e-05
6.59542e-06
2.63318e-06
1.04235e-06
4.09041e-07
1.59076e-07
6.12829e-08
2.33748e-08
8.82221e-09
3.29269e-09
1.21442e-09
4.42304e-10
1.58951e-10
5.63147e-11
1.96506e-11
6.74578e-12
2.27506e-12
7.52491e-13
2.43537e-13
7.68816e-14
2.35672e-14
6.96675e-15
1.96366e-15
5.16933e-16
1.2158e-16
2.24657e-17
1.2607e-18
-1.66241e-18
-1.22938e-18
-6.21686e-19
-2.71343e-19
-1.09065e-19
-3.92649e-20
1.00151
1.03563
0.997429
0.810398
0.543744
0.310816
0.15932
0.0767156
0.035658
0.0161654
0.0071752
0.00312735
0.00134203
0.000568207
0.000237754
9.84441e-05
4.03765e-05
1.64164e-05
6.62037e-06
2.6491e-06
1.05198e-06
4.146e-07
1.62148e-07
6.29144e-08
2.42104e-08
9.23595e-09
3.49123e-09
1.30695e-09
4.84247e-10
1.77476e-10
6.42967e-11
2.30097e-11
8.12784e-12
2.83144e-12
9.71802e-13
3.28225e-13
1.08931e-13
3.54564e-14
1.12903e-14
3.5047e-15
1.05507e-15
3.05552e-16
8.39684e-17
2.13308e-17
4.71393e-18
7.34939e-19
-3.86179e-20
-1.06338e-19
-6.53372e-20
-3.06525e-20
1.00151
1.03563
0.997429
0.810398
0.543744
0.310816
0.15932
0.0767156
0.035658
0.0161654
0.00717521
0.00312737
0.00134205
0.000568237
0.000237785
9.84719e-05
4.03994e-05
1.64339e-05
6.63271e-06
2.65731e-06
1.05716e-06
4.17701e-07
1.63926e-07
6.3894e-08
2.47302e-08
9.50253e-09
3.62364e-09
1.37078e-09
5.14175e-10
1.91144e-10
7.03855e-11
2.5659e-11
9.25493e-12
3.30073e-12
1.1632e-12
4.04738e-13
1.3893e-13
4.69973e-14
1.56483e-14
5.12029e-15
1.6431e-15
5.15665e-16
1.57648e-16
4.66729e-17
1.32559e-17
3.55277e-18
8.69357e-19
1.78617e-19
2.14726e-20
-8.07014e-21
1.00151
1.03563
0.997429
0.810398
0.543744
0.310816
0.15932
0.0767156
0.035658
0.0161654
0.00717521
0.00312737
0.00134206
0.000568247
0.000237797
9.84834e-05
4.04094e-05
1.64418e-05
6.6386e-06
2.66139e-06
1.05983e-06
4.19365e-07
1.64916e-07
6.44586e-08
2.50403e-08
9.66696e-09
3.70803e-09
1.41281e-09
5.34522e-10
2.00734e-10
7.47945e-11
2.76383e-11
1.01237e-11
3.67391e-12
1.32024e-12
4.69532e-13
1.65158e-13
5.74204e-14
1.97165e-14
6.68054e-15
2.23124e-15
7.33609e-16
2.37049e-16
7.51102e-17
2.3266e-17
7.01452e-18
2.04469e-18
5.70002e-19
1.49225e-19
2.8841e-20
1.00151
1.03563
0.997429
0.810398
0.543744
0.310816
0.15932
0.0767156
0.035658
0.0161654
0.00717521
0.00312737
0.00134206
0.000568251
0.000237801
9.84881e-05
4.04137e-05
1.64454e-05
6.64132e-06
2.66335e-06
1.06116e-06
4.20227e-07
1.65447e-07
6.4772e-08
2.52183e-08
9.76442e-09
3.75967e-09
1.43934e-09
5.47763e-10
2.07168e-10
7.78416e-11
2.90474e-11
1.07606e-11
3.95567e-12
1.44234e-12
5.21407e-13
1.86785e-13
6.62733e-14
2.32771e-14
8.08827e-15
2.77859e-15
9.4298e-16
3.1586e-16
1.04308e-16
3.39138e-17
1.08364e-17
3.39472e-18
1.03916e-18
3.09665e-19
7.82248e-20
1.00151
1.03563
0.997429
0.810398
0.543744
0.310816
0.15932
0.0767156
0.035658
0.0161654
0.00717521
0.00312737
0.00134206
0.000568252
0.000237803
9.84899e-05
4.04154e-05
1.64469e-05
6.64254e-06
2.66427e-06
1.06181e-06
4.20659e-07
1.65722e-07
6.49402e-08
2.53169e-08
9.82014e-09
3.79011e-09
1.45545e-09
5.56046e-10
2.1131e-10
7.98607e-11
3.00078e-11
1.12071e-11
4.15877e-12
1.53282e-12
5.60926e-13
2.03721e-13
7.34003e-14
2.62242e-14
9.28646e-15
3.25781e-15
1.13161e-15
3.88962e-16
1.3221e-16
4.44044e-17
1.47227e-17
4.8133e-18
1.54938e-18
4.90599e-19
1.36551e-19
1.00151
1.03563
0.997429
0.810398
0.543744
0.310816
0.15932
0.0767156
0.035658
0.0161654
0.00717521
0.00312737
0.00134206
0.000568253
0.000237804
9.84906e-05
4.04161e-05
1.64475e-05
6.64307e-06
2.66468e-06
1.06211e-06
4.2087e-07
1.65861e-07
6.50276e-08
2.53697e-08
9.85093e-09
3.80744e-09
1.4649e-09
5.61042e-10
2.1388e-10
8.11483e-11
3.06372e-11
1.15077e-11
4.29915e-12
1.59703e-12
5.89718e-13
2.16386e-13
7.8871e-14
2.85461e-14
1.02554e-14
3.65564e-15
1.29239e-15
4.52954e-16
1.57302e-16
5.4101e-17
1.84167e-17
6.20094e-18
2.06344e-18
6.78548e-19
1.99442e-19
1.00151
1.03563
0.997429
0.810398
0.543744
0.310816
0.15932
0.0767156
0.035658
0.0161654
0.00717521
0.00312737
0.00134206
0.000568253
0.000237804
9.84908e-05
4.04164e-05
1.64478e-05
6.6433e-06
2.66487e-06
1.06225e-06
4.20969e-07
1.65929e-07
6.50717e-08
2.53972e-08
9.86744e-09
3.817e-09
1.47026e-09
5.63957e-10
2.1542e-10
8.19408e-11
3.10349e-11
1.17026e-11
4.39256e-12
1.64085e-12
6.09865e-13
2.25472e-13
8.28941e-14
3.02963e-14
1.1004e-14
3.97067e-15
1.42289e-15
5.06199e-16
1.78708e-16
6.25842e-17
2.17319e-17
7.47893e-18
2.54952e-18
8.61121e-19
2.62518e-19
1.00151
1.03563
0.997429
0.810398
0.543744
0.310816
0.15932
0.0767156
0.035658
0.0161654
0.00717521
0.00312737
0.00134206
0.000568253
0.000237804
9.84909e-05
4.04165e-05
1.64479e-05
6.64339e-06
2.66495e-06
1.06231e-06
4.21015e-07
1.65961e-07
6.50933e-08
2.54111e-08
9.87604e-09
3.82213e-09
1.47321e-09
5.65605e-10
2.16315e-10
8.24131e-11
3.1278e-11
1.18247e-11
4.45256e-12
1.6697e-12
6.23451e-13
2.31748e-13
8.57394e-14
3.15637e-14
1.1559e-14
4.20974e-15
1.52427e-15
5.4854e-16
1.96134e-16
6.96546e-17
2.45612e-17
8.59596e-18
2.98477e-18
1.02865e-18
3.2206e-19
1.00151
1.03563
0.997429
0.810398
0.543744
0.310816
0.15932
0.0767156
0.035658
0.0161654
0.00717521
0.00312737
0.00134206
0.000568253
0.000237804
9.8491e-05
4.04165e-05
1.64479e-05
6.64343e-06
2.66498e-06
1.06234e-06
4.21036e-07
1.65976e-07
6.51037e-08
2.5418e-08
9.8804e-09
3.8248e-09
1.47479e-09
5.66511e-10
2.16819e-10
8.26861e-11
3.1422e-11
1.18989e-11
4.48987e-12
1.68806e-12
6.32305e-13
2.35933e-13
8.7681e-14
3.24484e-14
1.19552e-14
4.38429e-15
1.59996e-15
5.80863e-16
2.09735e-16
7.52973e-17
2.68701e-17
9.52811e-18
3.35623e-18
1.1749e-18
3.75402e-19
1.00151
1.03563
0.997429
0.810398
0.543744
0.310816
0.15932
0.0767156
0.035658
0.0161654
0.00717521
0.00312737
0.00134206
0.000568253
0.000237804
9.8491e-05
4.04165e-05
1.64479e-05
6.64344e-06
2.66499e-06
1.06235e-06
4.21045e-07
1.65983e-07
6.51085e-08
2.54213e-08
9.88255e-09
3.82615e-09
1.47561e-09
5.66995e-10
2.17095e-10
8.28396e-11
3.1505e-11
1.19426e-11
4.51238e-12
1.6994e-12
6.37897e-13
2.38636e-13
8.89629e-14
3.30454e-14
1.22285e-14
4.5073e-15
1.65445e-15
6.04633e-16
2.19953e-16
7.96267e-17
2.86794e-17
1.02742e-17
3.65994e-18
1.29704e-18
4.21031e-19
1.00151
1.03563
0.997429
0.810398
0.543744
0.310816
0.15932
0.0767156
0.035658
0.0161654
0.00717521
0.00312737
0.00134206
0.000568253
0.000237804
9.8491e-05
4.04165e-05
1.64479e-05
6.64345e-06
2.665e-06
1.06236e-06
4.21049e-07
1.65986e-07
6.51107e-08
2.54228e-08
9.88359e-09
3.82682e-09
1.47603e-09
5.67248e-10
2.17243e-10
8.29236e-11
3.15515e-11
1.19677e-11
4.52559e-12
1.7062e-12
6.41326e-13
2.4033e-13
8.97837e-14
3.34358e-14
1.2411e-14
4.59117e-15
1.69239e-15
6.21524e-16
2.27362e-16
8.28309e-17
3.00459e-17
1.08492e-17
3.89876e-18
1.39505e-18
4.58474e-19
1.00151
1.03563
0.997429
0.810398
0.543744
0.310816
0.15932
0.0767156
0.035658
0.0161654
0.00717521
0.00312737
0.00134206
0.000568253
0.000237804
9.8491e-05
4.04165e-05
1.64479e-05
6.64345e-06
2.665e-06
1.06236e-06
4.2105e-07
1.65987e-07
6.51117e-08
2.54236e-08
9.88408e-09
3.82715e-09
1.47624e-09
5.67377e-10
2.1732e-10
8.29685e-11
3.15769e-11
1.19817e-11
4.53314e-12
1.71018e-12
6.43372e-13
2.41363e-13
9.02945e-14
3.36839e-14
1.25293e-14
4.64666e-15
1.71798e-15
6.33152e-16
2.32565e-16
8.51249e-17
3.10434e-17
1.12772e-17
4.07998e-18
1.47087e-18
4.88061e-19
1.00151
1.03563
0.997429
0.810398
0.543744
0.310816
0.15932
0.0767156
0.035658
0.0161654
0.00717521
0.00312737
0.00134206
0.000568253
0.000237804
9.8491e-05
4.04165e-05
1.64479e-05
6.64345e-06
2.665e-06
1.06236e-06
4.21051e-07
1.65988e-07
6.51122e-08
2.54239e-08
9.88431e-09
3.8273e-09
1.47634e-09
5.67441e-10
2.1736e-10
8.29919e-11
3.15904e-11
1.19893e-11
4.53735e-12
1.71244e-12
6.44562e-13
2.41976e-13
9.06039e-14
3.38372e-14
1.26039e-14
4.68234e-15
1.73477e-15
6.40922e-16
2.36108e-16
8.67174e-17
3.17491e-17
1.15856e-17
4.21305e-18
1.52758e-18
5.10647e-19
1.00151
1.03563
0.997429
0.810398
0.543744
0.310816
0.15932
0.0767156
0.035658
0.0161654
0.00717521
0.00312737
0.00134206
0.000568253
0.000237804
9.8491e-05
4.04165e-05
1.64479e-05
6.64345e-06
2.665e-06
1.06236e-06
4.21051e-07
1.65988e-07
6.51124e-08
2.5424e-08
9.88441e-09
3.82737e-09
1.47639e-09
5.67472e-10
2.17379e-10
8.30038e-11
3.15975e-11
1.19934e-11
4.53964e-12
1.7137e-12
6.45237e-13
2.4233e-13
9.07868e-14
3.39295e-14
1.26497e-14
4.70467e-15
1.74548e-15
6.45974e-16
2.38455e-16
8.77916e-17
3.22338e-17
1.18014e-17
4.30782e-18
1.5687e-18
5.27345e-19
1.00151
1.03563
0.997429
0.810398
0.543744
0.310816
0.15932
0.0767156
0.035658
0.0161654
0.00717521
0.00312737
0.00134206
0.000568253
0.000237804
9.8491e-05
4.04165e-05
1.64479e-05
6.64345e-06
2.665e-06
1.06236e-06
4.21051e-07
1.65988e-07
6.51124e-08
2.54241e-08
9.88446e-09
3.82741e-09
1.47641e-09
5.67487e-10
2.17389e-10
8.30098e-11
3.16011e-11
1.19955e-11
4.54086e-12
1.71438e-12
6.45612e-13
2.42531e-13
9.08922e-14
3.39839e-14
1.26772e-14
4.71831e-15
1.75214e-15
6.49174e-16
2.39969e-16
8.8497e-17
3.25578e-17
1.19482e-17
4.37343e-18
1.59766e-18
5.39327e-19
1.00151
1.03563
0.997429
0.810398
0.543744
0.310816
0.15932
0.0767156
0.035658
0.0161654
0.00717521
0.00312737
0.00134206
0.000568253
0.000237804
9.8491e-05
4.04165e-05
1.64479e-05
6.64345e-06
2.665e-06
1.06236e-06
4.21052e-07
1.65988e-07
6.51125e-08
2.54241e-08
9.88448e-09
3.82742e-09
1.47642e-09
5.67494e-10
2.17394e-10
8.30128e-11
3.16029e-11
1.19966e-11
4.5415e-12
1.71475e-12
6.45816e-13
2.42643e-13
9.09518e-14
3.40151e-14
1.26933e-14
4.72645e-15
1.75618e-15
6.51152e-16
2.40921e-16
8.89485e-17
3.27688e-17
1.20454e-17
4.41764e-18
1.61751e-18
5.47691e-19
1.00151
1.03563
0.997429
0.810398
0.543744
0.310816
0.15932
0.0767156
0.035658
0.0161654
0.00717521
0.00312737
0.00134206
0.000568253
0.000237804
9.8491e-05
4.04165e-05
1.64479e-05
6.64345e-06
2.665e-06
1.06236e-06
4.21052e-07
1.65988e-07
6.51125e-08
2.54241e-08
9.88448e-09
3.82743e-09
1.47643e-09
5.67497e-10
2.17396e-10
8.30142e-11
3.16038e-11
1.19972e-11
4.54183e-12
1.71494e-12
6.45924e-13
2.42703e-13
9.09846e-14
3.40327e-14
1.27025e-14
4.73119e-15
1.75858e-15
6.52347e-16
2.41506e-16
8.92308e-17
3.2903e-17
1.21083e-17
4.4467e-18
1.63078e-18
5.53379e-19
1.00151
1.03563
0.997429
0.810398
0.543744
0.310816
0.15932
0.0767156
0.035658
0.0161654
0.00717521
0.00312737
0.00134206
0.000568253
0.000237804
9.8491e-05
4.04165e-05
1.64479e-05
6.64345e-06
2.665e-06
1.06236e-06
4.21052e-07
1.65988e-07
6.51125e-08
2.54241e-08
9.88449e-09
3.82743e-09
1.47643e-09
5.67499e-10
2.17397e-10
8.30148e-11
3.16043e-11
1.19974e-11
4.54199e-12
1.71503e-12
6.45981e-13
2.42735e-13
9.10025e-14
3.40424e-14
1.27076e-14
4.7339e-15
1.75998e-15
6.53053e-16
2.41858e-16
8.94034e-17
3.29864e-17
1.2148e-17
4.46536e-18
1.63943e-18
5.57152e-19
1.00151
1.03563
0.997429
0.810398
0.543744
0.310816
0.15932
0.0767156
0.035658
0.0161654
0.00717521
0.00312737
0.00134206
0.000568253
0.000237804
9.8491e-05
4.04165e-05
1.64479e-05
6.64345e-06
2.665e-06
1.06236e-06
4.21052e-07
1.65988e-07
6.51125e-08
2.54241e-08
9.88449e-09
3.82743e-09
1.47643e-09
5.67499e-10
2.17397e-10
8.30151e-11
3.16045e-11
1.19976e-11
4.54207e-12
1.71508e-12
6.4601e-13
2.42752e-13
9.10119e-14
3.40476e-14
1.27105e-14
4.73542e-15
1.76077e-15
6.53462e-16
2.42065e-16
8.95066e-17
3.30371e-17
1.21725e-17
4.47707e-18
1.64495e-18
5.59599e-19
1.00151
1.03563
0.997429
0.810398
0.543744
0.310816
0.15932
0.0767156
0.035658
0.0161654
0.00717521
0.00312737
0.00134206
0.000568253
0.000237804
9.8491e-05
4.04165e-05
1.64479e-05
6.64345e-06
2.665e-06
1.06236e-06
4.21052e-07
1.65988e-07
6.51125e-08
2.54241e-08
9.88449e-09
3.82743e-09
1.47643e-09
5.675e-10
2.17397e-10
8.30153e-11
3.16046e-11
1.19976e-11
4.54211e-12
1.71511e-12
6.46024e-13
2.4276e-13
9.10168e-14
3.40504e-14
1.2712e-14
4.73625e-15
1.76121e-15
6.53694e-16
2.42185e-16
8.95671e-17
3.30673e-17
1.21874e-17
4.48426e-18
1.64839e-18
5.61151e-19
1.00151
1.03563
0.997429
0.810398
0.543744
0.310816
0.15932
0.0767156
0.035658
0.0161654
0.00717521
0.00312737
0.00134206
0.000568253
0.000237804
9.8491e-05
4.04165e-05
1.64479e-05
6.64345e-06
2.665e-06
1.06236e-06
4.21052e-07
1.65988e-07
6.51125e-08
2.54241e-08
9.88449e-09
3.82743e-09
1.47643e-09
5.675e-10
2.17397e-10
8.30154e-11
3.16046e-11
1.19977e-11
4.54213e-12
1.71512e-12
6.46031e-13
2.42765e-13
9.10194e-14
3.40518e-14
1.27128e-14
4.7367e-15
1.76146e-15
6.53824e-16
2.42252e-16
8.96019e-17
3.30849e-17
1.21962e-17
4.48859e-18
1.65049e-18
5.62114e-19
1.00151
1.03563
0.997429
0.810398
0.543744
0.310816
0.15932
0.0767156
0.035658
0.0161654
0.00717521
0.00312737
0.00134206
0.000568253
0.000237804
9.8491e-05
4.04165e-05
1.64479e-05
6.64345e-06
2.665e-06
1.06236e-06
4.21052e-07
1.65988e-07
6.51125e-08
2.54241e-08
9.88449e-09
3.82743e-09
1.47643e-09
5.675e-10
2.17398e-10
8.30154e-11
3.16046e-11
1.19977e-11
4.54214e-12
1.71512e-12
6.46035e-13
2.42767e-13
9.10206e-14
3.40526e-14
1.27133e-14
4.73694e-15
1.76159e-15
6.53895e-16
2.4229e-16
8.96216e-17
3.3095e-17
1.22013e-17
4.49115e-18
1.65175e-18
5.62701e-19
1.00151
1.03563
0.997429
0.810398
0.543744
0.310816
0.15932
0.0767156
0.035658
0.0161654
0.00717521
0.00312737
0.00134206
0.000568253
0.000237804
9.8491e-05
4.04165e-05
1.64479e-05
6.64345e-06
2.665e-06
1.06236e-06
4.21052e-07
1.65988e-07
6.51125e-08
2.54241e-08
9.88449e-09
3.82743e-09
1.47643e-09
5.675e-10
2.17398e-10
8.30154e-11
3.16046e-11
1.19977e-11
4.54214e-12
1.71513e-12
6.46037e-13
2.42768e-13
9.10213e-14
3.40529e-14
1.27135e-14
4.73706e-15
1.76166e-15
6.53933e-16
2.4231e-16
8.96325e-17
3.31007e-17
1.22042e-17
4.49264e-18
1.6525e-18
5.63052e-19
1.00151
1.03563
0.997429
0.810398
0.543744
0.310816
0.15932
0.0767156
0.035658
0.0161654
0.00717521
0.00312737
0.00134206
0.000568253
0.000237804
9.8491e-05
4.04165e-05
1.64479e-05
6.64345e-06
2.665e-06
1.06236e-06
4.21052e-07
1.65988e-07
6.51125e-08
2.54241e-08
9.88449e-09
3.82743e-09
1.47643e-09
5.675e-10
2.17398e-10
8.30154e-11
3.16046e-11
1.19977e-11
4.54214e-12
1.71513e-12
6.46037e-13
2.42768e-13
9.10216e-14
3.40531e-14
1.27136e-14
4.73713e-15
1.76169e-15
6.53953e-16
2.42321e-16
8.96384e-17
3.31039e-17
1.22059e-17
4.49348e-18
1.65293e-18
5.63258e-19
1.00151
1.03563
0.997429
0.810398
0.543744
0.310816
0.15932
0.0767156
0.035658
0.0161654
0.00717521
0.00312737
0.00134206
0.000568253
0.000237804
9.8491e-05
4.04165e-05
1.64479e-05
6.64345e-06
2.665e-06
1.06236e-06
4.21052e-07
1.65988e-07
6.51125e-08
2.54241e-08
9.88449e-09
3.82743e-09
1.47643e-09
5.675e-10
2.17398e-10
8.30154e-11
3.16046e-11
1.19977e-11
4.54214e-12
1.71513e-12
6.46038e-13
2.42768e-13
9.10217e-14
3.40532e-14
1.27137e-14
4.73716e-15
1.76171e-15
6.53963e-16
2.42327e-16
8.96416e-17
3.31056e-17
1.22068e-17
4.49396e-18
1.65317e-18
5.63376e-19
1.00151
1.03563
0.997429
0.810398
0.543744
0.310816
0.15932
0.0767156
0.035658
0.0161654
0.00717521
0.00312737
0.00134206
0.000568253
0.000237804
9.8491e-05
4.04165e-05
1.64479e-05
6.64345e-06
2.665e-06
1.06236e-06
4.21052e-07
1.65988e-07
6.51125e-08
2.54241e-08
9.88449e-09
3.82743e-09
1.47643e-09
5.675e-10
2.17398e-10
8.30154e-11
3.16046e-11
1.19977e-11
4.54214e-12
1.71513e-12
6.46038e-13
2.42769e-13
9.10218e-14
3.40533e-14
1.27137e-14
4.73718e-15
1.76172e-15
6.53969e-16
2.4233e-16
8.96433e-17
3.31065e-17
1.22073e-17
4.49422e-18
1.65331e-18
5.63444e-19
1.00151
1.03563
0.997429
0.810398
0.543744
0.310816
0.15932
0.0767156
0.035658
0.0161654
0.00717521
0.00312737
0.00134206
0.000568253
0.000237804
9.8491e-05
4.04165e-05
1.64479e-05
6.64345e-06
2.665e-06
1.06236e-06
4.21052e-07
1.65988e-07
6.51125e-08
2.54241e-08
9.88449e-09
3.82743e-09
1.47643e-09
5.675e-10
2.17398e-10
8.30154e-11
3.16046e-11
1.19977e-11
4.54214e-12
1.71513e-12
6.46038e-13
2.42769e-13
9.10218e-14
3.40533e-14
1.27137e-14
4.73718e-15
1.76173e-15
6.53971e-16
2.42332e-16
8.96442e-17
3.3107e-17
1.22075e-17
4.49436e-18
1.65338e-18
5.63481e-19
1.00151
1.03563
0.997429
0.810398
0.543744
0.310816
0.15932
0.0767156
0.035658
0.0161654
0.00717521
0.00312737
0.00134206
0.000568253
0.000237804
9.8491e-05
4.04165e-05
1.64479e-05
6.64345e-06
2.665e-06
1.06236e-06
4.21052e-07
1.65988e-07
6.51125e-08
2.54241e-08
9.88449e-09
3.82743e-09
1.47643e-09
5.675e-10
2.17398e-10
8.30154e-11
3.16046e-11
1.19977e-11
4.54214e-12
1.71513e-12
6.46038e-13
2.42769e-13
9.10219e-14
3.40533e-14
1.27137e-14
4.73719e-15
1.76173e-15
6.53973e-16
2.42333e-16
8.96446e-17
3.31072e-17
1.22077e-17
4.49444e-18
1.65342e-18
5.63503e-19
)
;

boundaryField
{
    upperWall
    {
        type            zeroGradient;
    }
    outlet
    {
        type            zeroGradient;
    }
    inlet
    {
        type            fixedValue;
        value           uniform 1;
    }
    lowerWall
    {
        type            fixedValue;
        value           uniform 0;
    }
    frontAndBack
    {
        type            empty;
    }
}


// ************************************************************************* //
