/*--------------------------------*- C++ -*----------------------------------*\
  =========                 |
  \\      /  F ield         | OpenFOAM: The Open Source CFD Toolbox
   \\    /   O peration     | Website:  https://openfoam.org
    \\  /    A nd           | Version:  7
     \\/     M anipulation  |
\*---------------------------------------------------------------------------*/
FoamFile
{
    version     2.0;
    format      ascii;
    class       volScalarField;
    location    "0.85";
    object      T;
}
// * * * * * * * * * * * * * * * * * * * * * * * * * * * * * * * * * * * * * //

dimensions      [0 0 0 1 0 0 0];

internalField   nonuniform List<scalar> 
2500
(
0.5
0.0669146
-0.0353169
-0.0277115
-0.00789976
0.00112931
0.00220711
0.000963794
3.88563e-05
-0.000206219
-0.000130475
-2.60559e-05
1.76156e-05
1.74837e-05
6.08561e-06
-9.06071e-07
-2.20759e-06
-1.13469e-06
-1.06163e-07
2.47859e-07
1.87024e-07
4.93949e-08
-2.13889e-08
-2.77868e-08
-1.17496e-08
4.15156e-10
3.66292e-09
2.2526e-09
3.95066e-10
-4.02919e-10
-3.80597e-10
-1.32083e-10
2.44513e-11
5.46853e-11
2.92549e-11
4.27312e-12
-4.43058e-12
-3.00162e-12
2.81255e-14
1.0988e-12
5.59843e-13
-2.54366e-13
-6.12832e-13
-5.11719e-13
-2.36325e-13
-1.36559e-14
8.44895e-14
8.84332e-14
5.5478e-14
1.28587e-14
0.933085
0.5
0.14482
-0.0139075
-0.0411718
-0.0230289
-0.00507433
0.00215701
0.00250723
0.00101071
-9.38734e-08
-0.000255324
-0.000158213
-3.18213e-05
2.20241e-05
2.24005e-05
8.17946e-06
-9.48179e-07
-2.86443e-06
-1.56602e-06
-2.00131e-07
3.13491e-07
2.58848e-07
7.77037e-08
-2.39623e-08
-3.79435e-08
-1.77275e-08
-5.14211e-10
4.84133e-09
3.32013e-09
7.55098e-10
-4.83325e-10
-5.45195e-10
-2.23352e-10
5.95232e-12
6.3194e-11
3.59544e-11
4.25235e-12
-6.19671e-12
-2.66343e-12
2.58017e-12
4.13853e-12
2.66444e-12
5.47173e-13
-7.34946e-13
-9.96255e-13
-6.9141e-13
-2.89078e-13
-2.22961e-14
8.96208e-14
1.03532
0.85518
0.5
0.182448
0.00830364
-0.0419281
-0.032441
-0.0120093
3.84408e-05
0.00307766
0.00201936
0.000522644
-0.000189734
-0.000261936
-0.000118925
-6.07707e-06
2.86043e-05
2.02421e-05
5.19525e-06
-2.29056e-06
-2.95623e-06
-1.27806e-06
8.46756e-09
3.7177e-07
2.40893e-07
5.03681e-08
-3.68867e-08
-3.89072e-08
-1.47953e-08
1.68718e-09
5.48867e-09
3.15187e-09
4.8457e-10
-5.96548e-10
-5.34003e-10
-1.83616e-10
2.24139e-11
5.32299e-11
1.58276e-11
-1.22955e-11
-1.43194e-11
-3.81017e-12
4.95585e-12
7.22261e-12
5.0277e-12
1.85648e-12
-2.58376e-13
-9.87495e-13
-8.789e-13
-3.51984e-13
1.02771
1.01391
0.817552
0.5
0.206389
0.0268058
-0.0388677
-0.0384381
-0.0184166
-0.00302402
0.00284105
0.00282245
0.00118552
4.2633e-05
-0.000296282
-0.000211922
-6.02234e-05
1.88442e-05
2.95095e-05
1.43558e-05
1.17969e-06
-3.31264e-06
-2.541e-06
-7.34811e-07
2.46588e-07
3.77206e-07
1.78813e-07
8.5326e-09
-4.68232e-08
-3.36983e-08
-8.63815e-09
4.21527e-09
5.3995e-09
2.40329e-09
6.33765e-11
-6.14491e-10
-3.9207e-10
-6.8071e-11
6.07156e-11
3.96243e-11
-1.28226e-11
-3.5129e-11
-2.64688e-11
-7.96725e-12
4.90299e-12
8.61195e-12
6.54478e-12
3.01479e-12
4.56842e-13
-7.62014e-13
1.0079
1.04117
0.991696
0.793611
0.5
0.223365
0.042154
-0.0343031
-0.0421139
-0.0239644
-0.00647534
0.00197761
0.00332499
0.00186777
0.000400612
-0.000245072
-0.000285991
-0.000129611
-8.12739e-06
3.15022e-05
2.39228e-05
7.25577e-06
-1.97864e-06
-3.44895e-06
-1.76138e-06
-1.84528e-07
3.91275e-07
3.18311e-07
9.93674e-08
-2.71385e-08
-4.7846e-08
-2.43367e-08
-2.31499e-09
5.58761e-09
4.4273e-09
1.36368e-09
-3.03931e-10
-5.01649e-10
-1.60799e-10
8.6851e-11
1.13612e-10
3.40814e-11
-3.47609e-11
-5.34978e-11
-3.73627e-11
-1.34181e-11
2.49838e-12
7.81473e-12
6.77891e-12
2.60494e-12
0.998871
1.02303
1.04193
0.973194
0.776635
0.5
0.236308
0.0551561
-0.0291433
-0.0442026
-0.0286476
-0.0100134
0.000663016
0.00351519
0.00249279
0.000838178
-0.000110139
-0.000325109
-0.00020245
-4.98925e-05
2.37007e-05
3.12705e-05
1.49634e-05
1.26022e-06
-3.52124e-06
-2.80622e-06
-8.95936e-07
2.13701e-07
4.12309e-07
2.19147e-07
2.731e-08
-4.67069e-08
-4.02272e-08
-1.3794e-08
2.26387e-09
5.35224e-09
2.7791e-09
2.58495e-10
-5.65396e-10
-3.18953e-10
8.33838e-11
2.36011e-10
1.68219e-10
4.06069e-11
-4.18027e-11
-6.06279e-11
-4.25876e-11
-1.75237e-11
-7.39828e-13
6.04571e-12
0.997793
1.00507
1.03244
1.03887
0.957846
0.763692
0.5
0.246668
0.0663827
-0.0238073
-0.0451887
-0.0325522
-0.0134733
-0.000959178
0.00341734
0.00301639
0.00131432
9.733e-05
-0.000320961
-0.000268331
-0.000102053
5.40099e-06
3.42592e-05
2.29965e-05
6.21795e-06
-2.43296e-06
-3.57007e-06
-1.7841e-06
-1.83269e-07
4.05965e-07
3.38161e-07
1.1391e-07
-2.1881e-08
-4.89813e-08
-2.72794e-08
-4.48367e-09
4.5069e-09
3.84799e-09
8.69365e-10
-7.35411e-10
-7.38941e-10
-1.51803e-10
2.67224e-10
3.38518e-10
2.07466e-10
5.36394e-11
-3.52053e-11
-5.60022e-11
-4.17001e-11
-1.28222e-11
0.999036
0.997843
1.01201
1.03844
1.0343
0.944844
0.753332
0.5
0.255249
0.0762288
-0.0184971
-0.0453946
-0.0357829
-0.0167686
-0.00277966
0.00306919
0.00341666
0.00179625
0.000362307
-0.000271062
-0.000319196
-0.000159502
-2.26983e-05
3.14482e-05
3.00039e-05
1.24139e-05
-5.04944e-08
-3.78115e-06
-2.69591e-06
-7.83026e-07
2.57365e-07
4.19186e-07
2.19221e-07
2.92438e-08
-4.39808e-08
-3.83066e-08
-1.29143e-08
2.35042e-09
4.82245e-09
1.81331e-09
-8.43906e-10
-1.476e-09
-8.41655e-10
-5.12506e-11
3.53761e-10
3.74133e-10
2.19255e-10
6.42721e-11
-2.23801e-11
-4.26819e-11
0.999961
0.997493
0.999962
1.01842
1.04211
1.02914
0.933617
0.744751
0.5
0.262537
0.0849758
-0.0133115
-0.0450396
-0.0384394
-0.0198576
-0.00471768
0.00251112
0.00368607
0.00225945
0.000669094
-0.000176905
-0.000349474
-0.00021724
-5.89608e-05
2.21128e-05
3.47797e-05
1.91934e-05
3.57791e-06
-3.23315e-06
-3.45701e-06
-1.52889e-06
-5.44229e-08
4.24621e-07
3.20376e-07
1.00782e-07
-2.30517e-08
-4.38113e-08
-2.13503e-08
-3.06745e-10
6.48773e-09
4.04532e-09
-2.84628e-11
-2.02361e-09
-1.87777e-09
-8.71515e-10
-1.90484e-11
3.49515e-10
3.4793e-10
2.06656e-10
3.61662e-11
1.00021
0.998989
0.996922
1.00302
1.02396
1.0442
1.02381
0.923771
0.737463
0.5
0.268847
0.0928295
-0.00829713
-0.0442768
-0.0406094
-0.0227243
-0.00671456
0.00178129
0.00382595
0.00268654
0.001003
-4.24486e-05
-0.000355818
-0.000270829
-0.00010122
6.15702e-06
3.63689e-05
2.5836e-05
8.25659e-06
-1.80127e-06
-3.89338e-06
-2.32977e-06
-5.21619e-07
3.27095e-07
3.91771e-07
1.80061e-07
1.01194e-08
-4.46833e-08
-3.07324e-08
-4.41063e-09
8.64778e-09
8.29896e-09
2.93301e-09
-1.24778e-09
-2.55153e-09
-1.93868e-09
-8.24194e-10
-2.83278e-11
2.94451e-10
2.49647e-10
1.00013
1
0.997981
0.997159
1.00648
1.02865
1.04519
1.0185
0.915024
0.731153
0.5
0.274394
0.0999444
-0.00347339
-0.0432147
-0.0423674
-0.025367
-0.00872811
0.000913719
0.00384278
0.00306586
0.00135109
0.000126998
-0.000336703
-0.000316604
-0.000147095
-1.60187e-05
3.41048e-05
3.16335e-05
1.36806e-05
5.51929e-07
-3.85061e-06
-3.06947e-06
-1.10298e-06
1.21546e-07
4.17101e-07
2.5605e-07
5.04873e-08
-4.42081e-08
-4.49536e-08
-1.40675e-08
8.31379e-09
1.3395e-08
8.38592e-09
1.93325e-09
-1.76666e-09
-2.51765e-09
-1.73455e-09
-7.23971e-10
6.78058e-11
1.00003
1.00026
0.999477
0.997178
0.998022
1.01001
1.03255
1.04539
1.01331
0.90717
0.725606
0.5
0.279329
0.106439
0.00115474
-0.041932
-0.0437761
-0.0277924
-0.0107283
-6.22621e-05
0.00374582
0.00339021
0.00170247
0.000325546
-0.000292006
-0.000351727
-0.000194219
-4.36606e-05
2.75974e-05
3.59343e-05
1.94621e-05
3.76659e-06
-3.22179e-06
-3.6302e-06
-1.7331e-06
-1.71756e-07
3.98695e-07
3.30039e-07
1.01012e-07
-4.10634e-08
-6.64693e-08
-3.45671e-08
-1.78717e-10
1.52613e-08
1.44637e-08
7.38351e-09
1.19953e-09
-1.7414e-09
-2.17304e-09
-1.10072e-09
0.999982
1.00016
1.00019
0.998814
0.996675
0.999337
1.01347
1.03578
1.04504
1.0083
0.900056
0.720671
0.5
0.283765
0.112406
0.00559006
-0.0404869
-0.0448875
-0.0300111
-0.0126941
-0.0011218
0.00354557
0.00365566
0.00204819
0.000547228
-0.000222627
-0.000374149
-0.000240382
-7.57814e-05
1.67079e-05
3.81717e-05
2.51533e-05
7.67534e-06
-1.983e-06
-3.93349e-06
-2.35441e-06
-5.25691e-07
3.50788e-07
4.16973e-07
1.78613e-07
-2.15412e-08
-8.88428e-08
-6.66619e-08
-2.17403e-08
8.27865e-09
1.70142e-08
1.30044e-08
5.86244e-09
7.21227e-10
-1.60464e-09
0.999983
1.00003
1.00026
0.999957
0.998132
0.996485
1.00096
1.01677
1.03844
1.04428
1.00347
0.893561
0.716235
0.5
0.287787
0.11792
0.00983944
-0.0389223
-0.0457452
-0.0320359
-0.0146108
-0.00224409
0.00325288
0.00386073
0.00238115
0.000786327
-0.000130167
-0.000382502
-0.000283584
-0.000111226
1.55057e-06
3.79194e-05
3.03023e-05
1.20269e-05
-2.0631e-07
-3.97565e-06
-2.95892e-06
-9.4366e-07
2.71516e-07
5.28028e-07
3.06403e-07
4.01345e-08
-9.25352e-08
-1.00714e-07
-5.5198e-08
-1.10252e-08
1.15053e-08
1.52568e-08
1.04916e-08
2.78142e-09
0.999994
0.999978
1.00012
1.0003
0.999599
0.997507
0.996583
1.00278
1.01986
1.04061
1.04321
0.998845
0.887594
0.712213
0.5
0.291459
0.123039
0.0139117
-0.0372711
-0.0463857
-0.0338802
-0.0164687
-0.00341188
0.00287832
0.0040057
0.0026958
0.00103756
-1.66586e-05
-0.000375979
-0.000322038
-0.000148689
-1.74671e-05
3.49907e-05
3.45718e-05
1.65816e-05
1.99473e-06
-3.81275e-06
-3.60139e-06
-1.48821e-06
1.09312e-07
6.39777e-07
4.90427e-07
1.67873e-07
-5.04027e-08
-1.16302e-07
-8.997e-08
-4.00875e-08
-3.96667e-09
1.13804e-08
1.05973e-08
1
0.999978
1.00001
1.00021
1.00025
0.999162
0.996984
0.996931
1.00472
1.02272
1.04237
1.04193
0.99441
0.88208
0.708541
0.5
0.294834
0.127814
0.0178165
-0.035558
-0.0468395
-0.0355575
-0.0182615
-0.0046109
0.00243196
0.00409204
0.00298798
0.00129614
0.000115562
-0.00035429
-0.000354233
-0.000186795
-3.96528e-05
2.95176e-05
3.78754e-05
2.12617e-05
4.5953e-06
-3.4672e-06
-4.34583e-06
-2.26251e-06
-2.4414e-07
6.72592e-07
6.93789e-07
3.61104e-07
5.67751e-08
-9.02409e-08
-1.0831e-07
-6.92604e-08
-2.65941e-08
3.96495e-09
1
0.999992
0.999971
1.00006
1.00029
1.00011
0.998686
0.996583
0.997489
1.00671
1.02537
1.04378
1.04049
0.990161
0.876961
0.705166
0.5
0.297951
0.132283
0.0215636
-0.0338022
-0.0471324
-0.0370806
-0.0199854
-0.0058294
0.00192311
0.00412201
0.00325454
0.00155766
0.000263817
-0.000317793
-0.000379171
-0.000224357
-6.4231e-05
2.18628e-05
4.03993e-05
2.62501e-05
7.79398e-06
-2.79122e-06
-5.15076e-06
-3.32985e-06
-9.0987e-07
5.03942e-07
8.29497e-07
5.78157e-07
2.22834e-07
-1.00228e-08
-9.30193e-08
-8.69045e-08
-3.60467e-08
1
1
0.99998
0.999981
1.00013
1.00033
0.999903
0.998204
0.996314
0.998219
1.00873
1.02779
1.04489
1.03892
0.986088
0.872186
0.702049
0.5
0.300845
0.136483
0.0251626
-0.0320184
-0.0472861
-0.0384617
-0.0216385
-0.00705781
0.00136027
0.00409838
0.00349316
0.00181803
0.000425021
-0.000267683
-0.000396721
-0.000260841
-9.07947e-05
1.22588e-05
4.23744e-05
3.18939e-05
1.20225e-05
-1.38817e-06
-5.75976e-06
-4.60531e-06
-1.93562e-06
2.32675e-08
7.85942e-07
7.40392e-07
4.08686e-07
1.15587e-07
-3.94712e-08
-7.35035e-08
1
1
0.999995
0.99997
1.00001
1.0002
1.00032
0.999638
0.997741
0.996174
0.999086
1.01073
1.03001
1.04575
1.03727
0.982184
0.867717
0.699155
0.5
0.303542
0.14044
0.0286226
-0.0302183
-0.0473191
-0.0397122
-0.0232205
-0.00828825
0.00075131
0.00402445
0.00370252
0.00207379
0.000595995
-0.000205857
-0.00040775
-0.000296724
-0.000119809
2.78312e-07
4.36118e-05
3.83591e-05
1.77374e-05
1.3039e-06
-5.69156e-06
-5.79176e-06
-3.21426e-06
-7.94899e-07
4.78471e-07
7.60388e-07
5.5203e-07
2.58047e-07
1.01172e-08
1
1
1
0.999986
0.999968
1.00005
1.00027
1.00027
0.999331
0.997313
0.996157
1.00006
1.01269
1.03204
1.04639
1.03556
0.978436
0.863517
0.696458
0.5
0.306067
0.144179
0.0319521
-0.0284109
-0.0472475
-0.0408427
-0.0247317
-0.00951398
0.000103955
0.00390466
0.00388309
0.00232311
0.000774536
-0.000133996
-0.000413528
-0.000333289
-0.000152739
-1.55218e-05
4.30388e-05
4.51685e-05
2.50365e-05
5.74693e-06
-4.38342e-06
-6.4239e-06
-4.46368e-06
-1.84192e-06
-9.86517e-08
5.80236e-07
6.05101e-07
2.8311e-07
1
1
1
0.999999
0.999976
0.999976
1.0001
1.00032
1.00018
0.998997
0.996934
0.996254
1.00112
1.01461
1.03388
1.04684
1.0338
0.974837
0.85956
0.693933
0.5
0.308436
0.147722
0.0351594
-0.0266031
-0.0470846
-0.0418629
-0.026173
-0.0107291
-0.000573874
0.00374504
0.00403797
0.00256712
0.000961064
-5.18728e-05
-0.000414244
-0.000371528
-0.000191403
-3.7377e-05
3.86014e-05
5.09084e-05
3.32935e-05
1.19625e-05
-1.44933e-06
-6.0265e-06
-5.29721e-06
-2.88421e-06
-8.5297e-07
2.18644e-07
4.81968e-07
1
1
1
1
0.999993
0.999969
0.999995
1.00016
1.00035
1.00004
0.998649
0.99661
0.996454
1.00224
1.01647
1.03556
1.04713
1.03202
0.971378
0.855821
0.691564
0.5
0.310668
0.151087
0.0382521
-0.0248004
-0.0468422
-0.042782
-0.0275467
-0.0119293
-0.0012752
0.00355234
0.00417259
0.00281036
0.0011598
4.43329e-05
-0.000407151
-0.000410403
-0.000236578
-6.73577e-05
2.77767e-05
5.3373e-05
4.10539e-05
1.93032e-05
3.0693e-06
-4.3223e-06
-5.36205e-06
-3.63429e-06
-1.63153e-06
-4.62276e-08
1
1
1
1
1
0.999985
0.999966
1.00002
1.00022
1.00036
0.999873
0.998298
0.996344
0.996747
1.00341
1.01826
1.03708
1.04729
1.03022
0.968048
0.852278
0.689332
0.5
0.312776
0.15429
0.0412378
-0.0230069
-0.0465315
-0.0436111
-0.0288588
-0.0131156
-0.00199757
0.00333047
0.00429179
0.00305886
0.00137803
0.000162345
-0.000385471
-0.00044534
-0.000286409
-0.000105978
8.61443e-06
5.02096e-05
4.63271e-05
2.649e-05
8.59774e-06
-1.38906e-06
-4.47278e-06
-3.93677e-06
-1.6629e-06
1
1
1
1
1
0.999999
0.999977
0.999969
1.00006
1.00027
1.00034
0.999674
0.997952
0.996139
0.997122
1.00461
1.01999
1.03846
1.04732
1.02841
0.964841
0.848913
0.687224
0.5
0.314772
0.157346
0.0441235
-0.0212268
-0.0461649
-0.0443648
-0.0301225
-0.0142981
-0.00274833
0.00307473
0.00439419
0.00331538
0.00162257
0.00031168
-0.000339197
-0.000467997
-0.000335534
-0.000151031
-1.91238e-05
3.98386e-05
4.72064e-05
3.1944e-05
1.41356e-05
2.33603e-06
-2.81318e-06
-3.16798e-06
1
1
1
1
1
1
0.999994
0.99997
0.999978
1.0001
1.00032
1.00029
0.999453
0.997619
0.995994
0.997568
1.00583
1.02164
1.03971
1.04725
1.0266
0.961749
0.845711
0.685227
0.499999
0.316667
0.160268
0.0469163
-0.0194629
-0.0457538
-0.0450606
-0.031358
-0.015498
-0.0035485
0.00276645
0.00446601
0.00357316
0.00189419
0.000499241
-0.000258109
-0.000467927
-0.000375608
-0.000197337
-5.32876e-05
2.22416e-05
4.25613e-05
3.42814e-05
1.85549e-05
6.18497e-06
-1.39063e-06
1
1
1
1
1
1
1
0.999988
0.999965
0.999994
1.00015
1.00035
1.00022
0.999214
0.997304
0.995908
0.998077
1.00706
1.02322
1.04084
1.04708
1.0248
0.958765
0.842656
0.68333
0.499995
0.318469
0.163069
0.0496288
-0.0177088
-0.0453009
-0.04571
-0.0325854
-0.0167432
-0.00443079
0.00237211
0.00447792
0.0038112
0.0021823
0.000724173
-0.000136119
-0.000435777
-0.000397301
-0.000237679
-8.95093e-05
-7.54325e-07
3.25072e-05
3.27299e-05
2.13171e-05
6.42714e-06
1
1
1
1
1
1
1
1
0.999981
0.999964
1.00002
1.00019
1.00037
1.00013
0.998962
0.997012
0.995878
0.99864
1.00829
1.02473
1.04186
1.04684
1.02301
0.955883
0.839734
0.681518
0.499984
0.320188
0.165773
0.0522916
-0.0159343
-0.0447825
-0.0463015
-0.0338091
-0.018054
-0.00542919
0.0018501
0.00438811
0.00399436
0.00246276
0.000974375
2.48475e-05
-0.000366851
-0.000393094
-0.000264685
-0.000122223
-2.5829e-05
1.83382e-05
2.81373e-05
1.75305e-05
1
1
1
1
1
1
1
1
0.999996
0.999974
0.999966
1.00004
1.00024
1.00038
1.00002
0.998704
0.996745
0.995902
0.999249
1.00951
1.02617
1.04278
1.04653
1.02124
0.953094
0.836928
0.679775
0.499964
0.321845
0.168424
0.0549667
-0.0140676
-0.0441291
-0.0467797
-0.0349962
-0.0194241
-0.00656166
0.00116471
0.00415247
0.00407956
0.00270061
0.00122659
0.000213219
-0.00026354
-0.000359781
-0.000272917
-0.000146131
-4.91632e-05
2.81948e-06
1.99803e-05
1
1
1
1
1
1
1
1
1
0.999992
0.999968
0.999972
1.00008
1.00028
1.00038
0.999884
0.998442
0.996506
0.995976
0.999897
1.01073
1.02754
1.04361
1.04617
1.01948
0.950391
0.83422
0.678086
0.499934
0.323466
0.171084
0.0577519
-0.0119879
-0.0432143
-0.0470307
-0.03606
-0.0208018
-0.00781198
0.000302924
0.00373893
0.00402681
0.00285757
0.00145053
0.000409286
-0.000135607
-0.000299708
-0.000260408
-0.000157573
-6.80591e-05
-2.98152e-06
1
1
1
1
1
1
1
1
1
1
0.999986
0.999964
0.999983
1.00011
1.00032
1.00035
0.999735
0.998181
0.996298
0.996099
1.00058
1.01193
1.02885
1.04435
1.04576
1.01775
0.947772
0.831592
0.676418
0.49987
0.325061
0.173815
0.0607623
-0.00953889
-0.041863
-0.0468855
-0.0368579
-0.0220834
-0.00911879
-0.000712423
0.00314078
0.00381128
0.00290173
0.00161587
0.000589445
1.84134e-06
-0.000220359
-0.000228754
-0.000158399
-5.75628e-05
1
1
1
1
1
1
1
1
1
1
0.999999
0.99998
0.999962
0.999998
1.00015
1.00035
1.00032
0.999572
0.997925
0.996122
0.996266
1.00128
1.0131
1.03008
1.04503
1.04534
1.01609
0.94523
0.828983
0.674675
0.499672
0.32657
0.176625
0.0640856
-0.00656737
-0.0398844
-0.0461459
-0.0372097
-0.0231228
-0.0103781
-0.00181925
0.00238394
0.00343211
0.00281622
0.0016995
0.000731681
0.000131792
-0.00013172
-0.000187821
-0.000120165
1
1
1
1
1
1
1
1
1
1
1
0.999996
0.999975
0.999962
1.00002
1.00019
1.00038
1.00026
0.9994
0.997682
0.995981
0.996466
1.00198
1.01422
1.03126
1.0457
1.04499
1.0145
0.942698
0.826218
0.6726
0.49907
0.327776
0.179402
0.0677224
-0.00297832
-0.0371222
-0.044629
-0.0369332
-0.0237584
-0.0114598
-0.00292459
0.00152494
0.00291476
0.00260383
0.00169098
0.000820317
0.000239992
-4.85502e-05
-0.000131223
1
1
1
1
1
1
1
1
1
1
1
1
0.999992
0.999969
0.999966
1.00004
1.00022
1.00039
1.0002
0.999227
0.997457
0.995864
0.996671
1.00266
1.01532
1.03246
1.04648
1.04478
1.01296
0.939939
0.822877
0.669666
0.497535
0.328247
0.181859
0.0715353
0.00121358
-0.0335073
-0.0422169
-0.0358888
-0.0238481
-0.0122348
-0.00392255
0.000640473
0.00230631
0.00228643
0.00159416
0.000849033
0.000319305
-1.85337e-05
1
1
1
1
1
1
1
1
1
1
1
1
1
0.999988
0.999966
0.999973
1.00007
1.00026
1.0004
1.00013
0.999064
0.997243
0.995739
0.99684
1.0033
1.01647
1.03385
1.04752
1.04471
1.0112
0.936392
0.818165
0.664982
0.494232
0.327307
0.183519
0.0752313
0.00585591
-0.0290935
-0.0388961
-0.0340173
-0.0233039
-0.0126026
-0.00471604
-0.000188151
0.00166554
0.00189983
0.00142388
0.000835295
0.000249614
1
1
1
1
1
1
1
1
1
1
1
1
1
1
0.999984
0.999964
0.999981
1.00009
1.00028
1.0004
1.00007
0.998905
0.997007
0.995554
0.996958
1.00401
1.01787
1.03563
1.04888
1.04454
1.00855
0.931024
0.810835
0.657295
0.488066
0.324104
0.18377
0.0783911
0.0106672
-0.0240645
-0.0347737
-0.0313599
-0.0221131
-0.0125126
-0.0052358
-0.000890737
0.00105167
0.0014821
0.00123076
0.000605846
1
1
1
1
1
1
1
1
1
1
1
1
1
1
0.999998
0.999981
0.999963
0.999986
1.00011
1.00032
1.00042
1.00002
0.998718
0.996684
0.995273
0.997095
1.00498
1.01979
1.03797
1.05038
1.04356
1.0038
0.922274
0.799241
0.645109
0.477833
0.317743
0.18197
0.0805419
0.0152815
-0.0187083
-0.0300644
-0.0280559
-0.0203426
-0.0119731
-0.00545179
-0.00141908
0.000508416
0.00110334
0.00086032
1
1
1
1
1
1
1
1
1
1
1
1
1
1
1
0.999997
0.999978
0.999958
0.999988
1.00013
1.00037
1.00047
0.999952
0.998432
0.99622
0.994949
0.99747
1.00655
1.02248
1.04075
1.0513
1.04043
0.995134
0.908155
0.781546
0.626941
0.462451
0.307476
0.177581
0.0812522
0.0193163
-0.0133676
-0.0250549
-0.0243179
-0.0181254
-0.0110465
-0.00537394
-0.00175728
8.51967e-05
0.000745828
1
1
1
1
1
1
1
1
1
1
1
1
1
1
1
1
0.999996
0.99997
0.999947
0.999994
1.00018
1.00046
1.0005
0.999786
0.997975
0.995645
0.994792
0.998448
1.00904
1.02591
1.04329
1.05024
1.03313
0.980278
0.886543
0.756052
0.601623
0.44121
0.292878
0.170296
0.0802218
0.0224437
-0.00838065
-0.0200551
-0.0203948
-0.0156348
-0.00983363
-0.00504616
-0.00193065
3.22133e-05
1
1
1
1
1
1
1
1
1
1
1
1
1
0.999999
1
1.00001
1.00001
0.99999
0.999955
0.999937
1.00002
1.00027
1.00055
1.00046
0.999442
0.997352
0.995151
0.995182
1.00041
1.01251
1.02948
1.04417
1.04503
1.01917
0.956863
0.855576
0.721581
0.568598
0.413962
0.273968
0.160114
0.0773421
0.0244458
-0.00402751
-0.0153497
-0.0165316
-0.0130549
-0.0084461
-0.00460977
-0.00133048
1
1
1
1
1
1
1
1
1
1
1
1
1
0.999999
0.999999
1
1.00001
1
0.999977
0.999938
0.999945
1.00009
1.00038
1.00059
1.00025
0.998905
0.996735
0.995115
0.996543
1.00351
1.01645
1.03177
1.04114
1.033
0.995937
0.922879
0.814087
0.677788
0.528104
0.381209
0.251237
0.147353
0.072714
0.0252434
-0.000494547
-0.0111608
-0.0129381
-0.0105345
-0.00714156
-0.00310622
1
1
1
1
1
1
1
1
1
1
1
1
1
0.999999
0.999999
1
1.00001
1.00001
0.999995
0.999961
0.999934
0.999987
1.00018
1.00045
1.00049
0.999847
0.998322
0.996484
0.995979
0.999076
1.00728
1.01946
1.03048
1.03136
1.01134
0.96128
0.877146
0.761929
0.625315
0.481196
0.344054
0.225584
0.1326
0.0666229
0.0248946
0.00213971
-0.00763178
-0.00973719
-0.00839259
-0.00476326
1
1
1
1
1
1
1
1
1
1
1
1
1
1
0.999999
1
1
1.00001
1
0.999982
0.999955
0.99996
1.00005
1.00025
1.00039
1.0002
0.999375
0.998034
0.997043
0.997985
1.0024
1.01041
1.01925
1.02268
1.01187
0.977718
0.91396
0.819653
0.700099
0.565758
0.429617
0.304043
0.198177
0.116614
0.0594827
0.0235694
0.00389175
-0.00478732
-0.00720625
-0.00558009
1
1
1
1
1
1
1
1
1
1
1
1
1
1
1
1
1
1
1
0.999994
0.99998
0.999974
1.00001
1.0001
1.0002
1.00018
0.999846
0.999156
0.998475
0.998673
1.00081
1.00526
1.01062
1.01282
1.00526
0.980152
0.930799
0.854015
0.751659
0.630651
0.501447
0.375547
0.262942
0.170285
0.100214
0.0517668
0.0215036
0.00488512
-0.00274143
-0.00483587
1
1
1
1
1
1
1
1
1
1
1
1
1
1
1
1
1
1
0.999999
0.999996
0.999995
0.999999
1.00001
1.00003
1.00004
1.00002
0.999916
0.999732
0.999609
0.999908
1.00108
1.00324
1.00542
1.0049
0.996967
0.975562
0.934743
0.870599
0.78286
0.675556
0.5564
0.435115
0.321294
0.222497
0.143113
0.0841692
0.0439362
0.0189734
0.00527388
-0.00201728
1
1
1
1
1
1
1
1
1
1
1
1
1
1
1
1
1
1
0.999996
0.999994
1
1.00002
1.00003
1.00001
0.999948
0.999855
0.999801
0.999894
1.00026
1.00099
1.00206
1.00312
1.0031
0.999868
0.989968
0.968902
0.931972
0.875584
0.798586
0.703107
0.594527
0.480528
0.369528
0.269009
0.184234
0.117668
0.0691194
0.0363727
0.0164591
0.00303164
1
1
1
1
1
1
1
1
1
1
1
1
1
1
1
1
1
1
0.999994
0.999991
1
1.00003
1.00005
1.00003
0.999919
0.99975
0.999653
0.999839
1.0005
1.00167
1.00303
1.0038
1.00262
0.997395
0.985307
0.962966
0.926898
0.874334
0.804132
0.717495
0.618189
0.512089
0.406159
0.307157
0.220462
0.149324
0.0946972
0.0554724
0.0298872
0.0100684
1
1
1
1
1
1
1
1
1
1
1
1
1
1
1
1
1
1
0.999994
0.999988
0.999998
1.00003
1.00006
1.00005
0.999923
0.999704
0.999542
0.999718
1.00051
1.00198
1.0037
1.00461
1.00302
0.996642
0.982835
0.958827
0.92207
0.870698
0.804058
0.723165
0.630913
0.531866
0.431642
0.336007
0.249939
0.176902
0.118524
0.0745235
0.0443026
0.0185007
1
1
1
1
1
1
1
1
1
1
1
1
1
1
1
1
1
1
0.999994
0.999988
0.999995
1.00003
1.00007
1.00006
0.999938
0.999697
0.999485
0.999613
1.00043
1.00205
1.00404
1.00523
1.00365
0.996782
0.981911
0.956495
0.918547
0.866935
0.80163
0.723894
0.636334
0.542749
0.447739
0.356106
0.272184
0.19924
0.139153
0.0921321
0.0585514
0.027665
1
1
1
1
1
1
1
1
1
1
1
1
1
1
1
1
1
1
0.999994
0.999987
0.999994
1.00003
1.00007
1.00007
0.999952
0.999706
0.999466
0.99955
1.00034
1.00201
1.00416
1.00558
1.00416
0.997205
0.981818
0.95548
0.916462
0.864107
0.798922
0.722555
0.637671
0.547738
0.456724
0.368685
0.287311
0.2155
0.155097
0.106515
0.0708252
0.0361234
1
1
1
1
1
1
1
1
1
1
1
1
1
1
1
1
1
1
0.999995
0.999988
0.999993
1.00002
1.00007
1.00007
0.999962
0.999721
0.999471
0.99952
1.00026
1.00191
1.00414
1.00574
1.00456
0.99775
0.982215
0.955299
0.915322
0.861908
0.79604
0.719872
0.636411
0.549149
0.461714
0.377555
0.299662
0.230338
0.171094
0.122252
0.0854151
0.0473673
)
;

boundaryField
{
    upperWall
    {
        type            zeroGradient;
    }
    outlet
    {
        type            zeroGradient;
    }
    inlet
    {
        type            fixedValue;
        value           uniform 1;
    }
    lowerWall
    {
        type            fixedValue;
        value           uniform 0;
    }
    frontAndBack
    {
        type            empty;
    }
}


// ************************************************************************* //
