/*--------------------------------*- C++ -*----------------------------------*\
  =========                 |
  \\      /  F ield         | OpenFOAM: The Open Source CFD Toolbox
   \\    /   O peration     | Website:  https://openfoam.org
    \\  /    A nd           | Version:  7
     \\/     M anipulation  |
\*---------------------------------------------------------------------------*/
FoamFile
{
    version     2.0;
    format      ascii;
    class       volScalarField;
    location    "0.72";
    object      T;
}
// * * * * * * * * * * * * * * * * * * * * * * * * * * * * * * * * * * * * * //

dimensions      [0 0 0 1 0 0 0];

internalField   nonuniform List<scalar> 
46572
(
0
0
0
0
0
0
0
0
0
0
0
0
0
0
0
0
0
0
0
0
0
0
0
0
0
0
0
0
0
0
0
0
0
0
0
0
0
0
0
0
0
0
0
0
0
0
0
0
0
0
0
0
0
0
0
0
0
0
0
0
0
0
0
0
0
0
0
0
0
0
0
0
0
0
0
0
0
0
0
0
0
0
0
0
0
0
0
0
0
0
0
0
0
0
0
0
0
0
0
0
0
0
0
0
0
0
0
0
0
0
0
0
0
0
0
0
0
0
0
0
0
0
0
0
0
0
0
0
0
0
0
0
0
0
0
0
0
0
0
0
0
0
0
0
0
0
0
0
0
0
0
0
0
0
0
0
0
0
0
0
0
0
0
0
0
0
0
0
0
0
0
0
0
0
0
0
0
0
0
0
0
0
0
0
0
0
0
0
0
0
0
0
0
0
0
0
0
0
0
0
0
0
0
0
0
0
0
0
0
0
0
0
0
0
0
0
0
0
0
0
0
0
0
0
0
0
0
0
0
0
0
0
0
0
0
0
0
0
0
0
0
0
0
0
0
0
0
0
0
0
0
0
0
0
0
1.41101e-153
0
-3.09182e-142
-3.86477e-142
-9.15247e-141
4.16929e-140
-2.11627e-137
3.71638e-139
3.18721e-135
-3.2691e-134
-9.37698e-129
-6.96034e-129
-7.25971e-125
-9.04005e-125
-2.40453e-124
-3.00374e-124
-1.67357e-124
-2.20135e-124
1.90506e-124
-5.12108e-124
-1.95652e-121
-2.69368e-121
-8.74306e-121
-1.64279e-120
-1.61098e-119
8.23246e-120
1.66276e-117
-6.903e-117
2.78653e-116
-7.66791e-116
7.70417e-115
-1.73427e-114
1.29002e-114
-1.40101e-113
1.68014e-114
-8.47006e-114
6.46984e-114
-2.00076e-113
7.06793e-113
-9.34319e-113
2.41564e-111
1.92377e-111
1.57266e-111
1.09261e-111
3.99983e-111
-9.55907e-111
1.01594e-110
-5.87601e-111
1.4567e-110
7.17137e-111
-2.3338e-110
8.43328e-110
-1.7104e-109
3.09116e-109
-2.96521e-108
-2.32433e-108
-1.18334e-107
-1.07311e-107
-8.3452e-108
-8.24889e-108
3.96921e-107
-3.98256e-107
1.67568e-105
1.13954e-105
1.01755e-105
1.65871e-105
-3.54922e-106
4.43353e-105
-9.27064e-106
3.62173e-105
2.92633e-105
5.81826e-105
-7.75611e-104
2.17425e-103
-2.29945e-103
2.75199e-103
-1.02598e-102
-1.41065e-102
-9.33179e-103
-4.90942e-102
-6.31281e-104
-9.87403e-102
1.29169e-101
-4.23173e-101
1.16154e-101
-4.35496e-101
9.70971e-101
-2.32114e-100
2.35188e-100
-3.86346e-100
4.12366e-100
-5.66191e-100
1.11906e-99
8.50569e-101
8.71384e-100
-7.82053e-101
9.29485e-100
-9.28927e-100
1.44029e-99
-2.58396e-100
1.36318e-99
-6.77403e-100
1.86162e-99
-2.36507e-99
7.14659e-99
2.57422e-99
5.10183e-99
3.83797e-100
7.92408e-99
-1.27998e-98
1.73395e-98
-1.36371e-98
2.17585e-98
-5.72887e-99
2.66958e-98
-2.74197e-98
4.86146e-98
-6.41279e-98
1.36043e-97
7.33489e-98
1.71415e-97
-1.93136e-97
2.15943e-97
-2.38744e-98
1.76746e-97
-1.34686e-98
9.49418e-98
2.65779e-97
-1.49998e-97
9.79027e-97
-1.59095e-96
1.65922e-96
-7.04886e-96
-2.27149e-96
-1.55841e-95
-4.35832e-96
-1.17642e-95
-5.14531e-96
-9.20688e-96
-4.18011e-96
-1.0176e-95
-1.4426e-95
-1.00155e-95
-2.6284e-95
-7.95965e-96
-4.02383e-95
6.42432e-95
-2.33758e-94
1.69846e-94
-2.64319e-94
2.6664e-94
-4.80816e-94
3.87929e-94
-6.33664e-94
5.98981e-94
-1.2048e-93
1.74358e-93
-1.45785e-93
8.46e-93
-9.56985e-93
8.73084e-93
-8.37228e-93
8.8073e-93
-8.19176e-93
8.52321e-93
-7.87849e-93
2.32911e-92
-1.72141e-92
3.7394e-92
4.7949e-93
2.84634e-92
-3.96966e-93
3.64742e-92
-4.44425e-92
6.24095e-92
-5.37149e-92
7.79746e-92
-3.63856e-92
9.18594e-92
-8.28172e-92
1.37105e-91
-2.08133e-91
1.74383e-91
-1.4147e-91
2.98596e-91
-2.55709e-91
2.78266e-91
-1.35889e-91
3.03049e-91
2.22985e-92
2.56874e-91
-1.69267e-92
2.47148e-91
-1.10866e-91
8.00305e-91
1.46348e-91
5.99105e-91
-1.52466e-91
9.4641e-91
-1.50547e-90
1.6547e-90
-1.40929e-90
1.91957e-90
-5.95389e-91
1.90701e-90
-7.8758e-91
2.05844e-90
-1.74644e-90
2.30896e-90
-1.3164e-90
2.60198e-90
-2.19013e-90
2.62719e-90
-8.40184e-91
2.41819e-90
-7.14971e-92
2.02586e-90
-2.28162e-91
1.77502e-90
3.27076e-93
1.66188e-90
1.67804e-94
2.42327e-90
-2.9446e-90
3.96436e-90
-4.59519e-91
4.10456e-90
-2.5834e-90
3.76984e-90
-2.17609e-90
7.30147e-90
-4.13198e-90
1.03126e-89
1.9997e-90
7.94767e-90
-1.69314e-91
8.19806e-90
-4.90872e-90
9.05563e-90
-2.26301e-90
1.25258e-89
-8.73496e-90
2.04999e-89
-1.59041e-89
2.54392e-89
-2.94574e-89
2.45294e-89
-2.13947e-89
2.65653e-89
-2.85738e-89
2.6471e-89
-2.46046e-89
3.71985e-89
-2.51559e-89
3.34156e-89
-1.5101e-89
6.05225e-89
-2.94947e-89
8.46562e-89
1.56262e-89
6.5026e-89
-1.97819e-90
6.64845e-89
-4.24234e-89
8.33065e-89
-3.84891e-89
8.4913e-89
-1.14221e-89
7.75208e-89
-2.47563e-89
7.82865e-89
-2.86416e-89
1.05632e-88
2.3342e-89
8.2712e-89
1.23976e-89
7.43519e-89
7.88787e-90
9.18535e-89
1.95868e-89
7.15817e-89
1.53524e-89
5.88573e-89
5.10655e-91
8.53576e-89
3.66747e-89
6.05532e-89
1.87936e-89
5.24687e-89
-8.15372e-90
5.15339e-89
-6.69208e-90
4.6699e-89
1.57985e-90
3.79282e-89
-1.03492e-90
3.46633e-89
-3.07564e-90
4.04229e-89
1.83381e-89
3.31396e-89
1.81262e-90
3.01029e-89
2.47272e-90
2.41059e-89
1.80432e-90
1.89816e-89
1.74098e-90
3.89273e-90
-3.2689e-89
-1.87959e-87
-8.83589e-88
-4.41243e-86
2.43522e-86
-4.9326e-85
3.77444e-85
6.4317e-83
-1.20402e-83
-2.21354e-81
2.56699e-81
1.58739e-79
-1.796e-79
3.01164e-78
1.19234e-78
3.67994e-77
-3.41467e-77
-5.06219e-77
-1.37962e-76
2.98586e-75
-2.01536e-74
2.55992e-73
3.98687e-74
6.62047e-72
-8.87577e-73
1.01263e-70
7.03383e-71
6.50635e-70
5.21509e-71
7.97636e-69
-1.40864e-69
-1.02835e-67
-5.38027e-07
-2.02567e-07
-7.03683e-09
-1.55219e-10
1.30048e-11
3.19385e-13
-9.55995e-16
-3.04261e-17
8.49869e-20
-5.55236e-22
2.92436e-23
-6.50743e-25
2.87077e-27
5.7266e-29
-7.55181e-31
2.63943e-34
1.54519e-35
-4.21441e-38
-5.45826e-40
5.7083e-42
-3.35385e-44
1.22229e-46
-3.56969e-49
9.51984e-52
-1.29482e-53
2.05413e-55
-2.2522e-57
1.56504e-59
-6.90267e-62
1.81817e-64
-5.88314e-07
1.52373e-08
9.34241e-09
-6.51139e-08
-1.11594e-07
1.81881e-07
7.28172e-07
-6.43117e-07
-8.35874e-06
-2.43167e-05
-3.08639e-05
3.25114e-05
0.000309721
0.00106615
0.00264108
0.00551512
0.0103715
0.0176225
0.0277382
0.0411145
0.0574668
0.077473
0.0995237
0.121239
0.144955
0.165289
0.181942
0.192527
0.198868
0.196897
0.187029
0.169454
0.149626
0.123027
0.0937726
0.0631354
0.0341042
0.00552884
-0.0201855
-0.0396535
-0.0571211
-0.068031
-0.0756936
-0.0782484
-0.0744035
-0.073178
-0.0685352
-0.0613418
-0.0552104
-0.0481457
-0.0404004
-0.033374
-0.0275739
-0.0228348
-0.0182394
-0.0140311
-0.0110203
-0.00836754
-0.00626733
-0.00468301
-0.00332811
-0.00248592
-0.0018008
-0.00127286
-0.0008995
-0.00063689
-0.000451182
-0.000313981
-0.000207996
-0.000144019
-9.6419e-05
-6.3427e-05
-4.17706e-05
-2.7808e-05
-1.79721e-05
-1.15679e-05
-7.28448e-06
-4.75547e-06
-3.01868e-06
-1.9682e-06
-9.63886e-07
-6.28898e-07
4.86757e-11
-1.05081e-11
-1.38889e-11
-1.80562e-10
2.41298e-10
-5.64867e-10
-6.80529e-10
1.77987e-09
-3.85305e-09
-2.1136e-09
5.34519e-09
7.30114e-09
-1.23986e-10
5.59897e-11
-8.3271e-11
-2.05205e-11
-4.19634e-11
-1.50122e-11
5.38718e-11
-2.10243e-10
1.31192e-10
-8.74515e-11
-4.44374e-11
3.77966e-10
3.09401e-10
-3.35264e-10
-7.39659e-11
2.51675e-10
-1.2509e-10
3.29545e-10
4.29286e-10
-1.12795e-10
1.48967e-10
-4.05678e-10
-1.84661e-10
-5.18777e-10
-4.79069e-10
1.23063e-10
-1.82743e-10
-4.47693e-11
1.79965e-10
-2.71154e-10
-3.1658e-10
-7.24598e-10
-5.04809e-10
-6.334e-10
-7.04979e-10
1.48091e-10
7.14082e-10
3.07659e-09
2.07071e-09
1.79575e-09
2.92928e-10
-3.6043e-09
-2.46313e-10
-8.70024e-09
-4.15795e-09
-9.80692e-09
-1.18319e-08
-3.77895e-09
-1.01311e-08
-1.84461e-09
-3.93993e-09
1.2912e-08
5.30357e-09
2.31804e-08
1.43403e-08
1.12343e-08
9.21317e-09
-2.67868e-08
-2.13832e-08
-7.80231e-08
-7.62017e-08
-1.09397e-07
-1.52473e-07
-7.0533e-08
-2.08707e-07
8.30098e-08
-2.07319e-07
3.6262e-07
-8.85761e-08
7.22173e-07
1.00703e-07
9.81648e-07
2.52722e-07
7.60324e-07
1.43052e-07
-3.38726e-07
-6.93828e-07
-2.71518e-06
-2.86898e-06
-6.39627e-06
-6.98965e-06
-1.07453e-05
-1.35163e-05
-1.341e-05
-2.2287e-05
-1.00691e-05
-3.21749e-05
6.49676e-06
-4.11637e-05
4.8207e-05
-4.3395e-05
0.00013172
-2.90008e-05
0.000285031
7.71335e-06
0.000537531
9.60546e-05
0.000917104
0.000249307
0.00147986
0.000486897
0.00225595
0.000864802
0.00336914
0.0013723
0.00479289
0.00214195
0.00663564
0.003088
0.00902097
0.00436471
0.0118651
0.00595846
0.0153087
0.00784014
0.0196019
0.0102184
0.0244504
0.0131373
0.0299665
0.0162802
0.0364448
0.0200633
0.0434261
0.0242364
0.0513253
0.028653
0.0594021
0.0336781
0.0688884
0.0387584
0.0782087
0.0446778
0.0878617
0.0500623
0.0988845
0.0563916
0.108581
0.0621767
0.118314
0.0673063
0.12936
0.0732158
0.138949
0.0790344
0.147247
0.0829472
0.156668
0.0876241
0.162913
0.0902409
0.16829
0.0912542
0.174036
0.0926215
0.175047
0.091919
0.178096
0.0908304
0.179528
0.0908701
0.177654
0.087748
0.174949
0.0823831
0.169124
0.0761681
0.163936
0.0693481
0.155983
0.0620703
0.146058
0.0518089
0.136449
0.0431183
0.124126
0.0316205
0.111237
0.0195882
0.0984524
0.00851421
0.083887
-0.00375192
0.0709041
-0.0155217
0.056667
-0.0259764
0.0420857
-0.037264
0.0283936
-0.0486815
0.0148964
-0.0588769
0.00286312
-0.0693197
-0.00965445
-0.0777798
-0.0200209
-0.0861963
-0.0324315
-0.0928536
-0.0402768
-0.0992392
-0.0479752
-0.103951
-0.0562418
-0.108359
-0.0629634
-0.111642
-0.0665263
-0.113476
-0.0720939
-0.114541
-0.0752922
-0.114714
-0.0771023
-0.114128
-0.0771873
-0.11229
-0.0778281
-0.110473
-0.0777807
-0.107616
-0.0758777
-0.103886
-0.0761721
-0.100399
-0.0722375
-0.0955839
-0.0688005
-0.0903953
-0.0669213
-0.0861238
-0.0640723
-0.0815126
-0.05962
-0.0760116
-0.057157
-0.0713634
-0.0525257
-0.0658411
-0.0483699
-0.0604781
-0.0455335
-0.0558531
-0.0408374
-0.0506203
-0.0377776
-0.0465009
-0.0350944
-0.0428664
-0.0320039
-0.0389392
-0.0290812
-0.0351927
-0.0259687
-0.0315361
-0.0235052
-0.0284606
-0.0212437
-0.0255228
-0.018614
-0.0225753
-0.0169531
-0.0201685
-0.0147426
-0.0177074
-0.0129078
-0.0155194
-0.011583
-0.0138122
-0.0101556
-0.0121163
-0.00874857
-0.0104895
-0.00773747
-0.00920163
-0.00673336
-0.00800156
-0.00585589
-0.00693733
-0.0050222
-0.00597762
-0.00435025
-0.00517222
-0.00376016
-0.00445474
-0.00319368
-0.00379663
-0.00278375
-0.00327664
-0.00233708
-0.0027693
-0.00197343
-0.00234126
-0.00169779
-0.00200338
-0.00144784
-0.00170594
-0.00120523
-0.00142956
-0.00102871
-0.00121308
-0.000864017
-0.00101928
-0.000725409
-0.000854504
-0.00060328
-0.000712268
-0.000504537
-0.000597017
-0.000421871
-0.000497672
-0.000346136
-0.000408817
-0.000283672
-0.000335068
-0.000236859
-0.000279686
-0.000196668
-0.000232213
-0.000164177
-0.000193577
-0.000136124
-0.000160272
-0.000110122
-0.000130472
-9.18141e-05
-0.000107856
-7.40747e-05
-8.7303e-05
-5.9727e-05
-7.07167e-05
-4.91846e-05
-5.78899e-05
-3.90843e-05
-4.62586e-05
-3.19416e-05
-3.77895e-05
-2.6255e-05
-3.10198e-05
-2.12578e-05
-2.51513e-05
-1.72148e-05
-2.03425e-05
-1.38087e-05
-1.63754e-05
-1.11749e-05
-1.32525e-05
-9.03586e-06
-1.06731e-05
-7.14646e-06
-8.48763e-06
-5.81841e-06
-6.87219e-06
-4.6258e-06
-5.48258e-06
-3.71172e-06
-4.38629e-06
-3.01526e-06
-3.52949e-06
-2.3807e-06
-2.7744e-06
-1.81401e-06
-2.14614e-06
-1.44013e-06
-1.74848e-06
-1.32535e-06
-9.18794e-07
-1.47185e-06
-2.31843e-23
5.84668e-22
3.33453e-19
7.13016e-17
4.85011e-15
-1.86669e-14
4.91808e-13
9.82021e-11
5.66814e-09
3.87493e-09
7.45317e-08
6.65195e-08
1.29862e-08
0
0
-2.18989e-45
-2.38195e-37
-8.54162e-31
1.0676e-28
1.35573e-26
1.33813e-25
-7.70484e-25
1.56125e-25
-2.42544e-24
-2.1192e-23
-3.08164e-23
1.99577e-23
2.30627e-25
1.06747e-22
6.52449e-23
-1.26986e-23
-5.00178e-24
-6.16583e-24
-1.75938e-23
-4.82992e-23
-5.83745e-23
-7.246e-23
-9.75767e-23
-1.1285e-22
-7.6903e-23
-5.74884e-23
-6.86573e-23
-8.68439e-23
-1.70896e-22
-1.47775e-22
-9.97473e-23
8.18837e-23
2.29529e-22
3.31788e-22
2.55119e-22
2.93706e-22
2.09517e-22
1.63497e-22
9.41013e-23
3.50745e-23
-2.40501e-23
-5.27472e-23
-4.4548e-23
-5.23545e-23
-3.54998e-23
-3.44898e-23
-2.65145e-23
-1.93136e-23
-1.19456e-23
-6.27031e-24
-1.74715e-24
-2.31957e-25
7.30181e-25
9.43479e-25
1.12214e-24
8.30606e-25
7.90697e-25
6.34508e-25
3.47895e-25
2.55695e-25
1.75119e-25
1.05006e-25
5.42273e-26
1.86013e-26
1.27806e-26
8.22965e-27
3.60702e-27
1.7661e-27
4.21544e-28
-1.34893e-27
-2.07338e-27
-8.87537e-28
-1.67847e-27
-1.32262e-27
5.98047e-28
6.6213e-28
1.07314e-27
1.32759e-27
1.29505e-27
7.84745e-28
8.26914e-28
6.17566e-28
4.4996e-28
3.94773e-28
2.34622e-28
2.1822e-28
1.72444e-28
1.07971e-28
8.10712e-29
3.90861e-29
3.44948e-29
2.54064e-29
2.12401e-29
1.53297e-29
7.05016e-30
3.09536e-29
7.70224e-27
-2.79355e-24
-1.36574e-67
1.24311e-09
7.8956e-10
6.90207e-08
3.73917e-08
-1.21169e-08
-2.07522e-10
-1.65784e-11
-2.52323e-12
-2.14581e-14
3.47411e-16
7.49083e-19
-3.40104e-21
-6.80515e-23
-3.35607e-25
6.97554e-26
-9.95152e-28
3.83486e-30
3.669e-32
-1.52496e-34
-8.2171e-37
1.13062e-38
-4.9834e-41
4.88771e-44
6.58109e-46
-5.72608e-48
4.75477e-50
-4.53714e-52
4.60218e-54
-3.62786e-56
2.28524e-58
-7.91311e-61
1.5055e-63
3.73552e-11
-4.51834e-66
2.25496e-08
-1.62081e-08
-1.07074e-07
-1.97482e-08
4.96681e-07
5.27149e-07
-3.40467e-06
-1.56491e-05
-3.10361e-05
-1.51049e-05
0.000130102
0.000600933
0.00172763
0.00389798
0.00772056
0.0136251
0.0222316
0.0343337
0.0489251
0.0672097
0.0875578
0.109567
0.133
0.153967
0.172046
0.189397
0.195015
0.196296
0.192686
0.178866
0.161066
0.136515
0.107959
0.0788349
0.0482389
0.0196914
-0.00663241
-0.0289129
-0.049655
-0.0607958
-0.0690084
-0.0761121
-0.0759162
-0.0746389
-0.0714619
-0.0637802
-0.059436
-0.0507002
-0.042987
-0.0375363
-0.0304628
-0.0251548
-0.0200251
-0.0155947
-0.0125359
-0.00934269
-0.00705914
-0.00534698
-0.00392707
-0.00288263
-0.00213352
-0.00148651
-0.00109479
-0.000758344
-0.000536413
-0.000369956
-0.000250228
-0.000172739
-0.000115596
-7.66518e-05
-5.24189e-05
-3.37991e-05
-2.18563e-05
-1.42429e-05
-9.01091e-06
-5.88964e-06
-3.7073e-06
-2.40932e-06
-1.72246e-06
-2.37064e-11
-1.26709e-10
1.43898e-10
-9.3816e-11
2.58442e-10
8.44394e-11
-4.95841e-10
1.81808e-09
9.91251e-10
-4.29956e-09
-2.02424e-10
6.86386e-11
-9.09727e-11
-8.11257e-13
-3.1349e-11
-1.73241e-11
-1.0267e-10
1.67306e-11
-1.28553e-11
-3.27044e-11
-5.76431e-17
-1.47989e-12
-1.44442e-20
-5.48209e-18
-7.45075e-16
-1.70493e-14
2.38382e-13
-9.75376e-12
-9.35322e-10
-2.12526e-08
4.61027e-19
0
0
-1.14488e-42
-1.57295e-33
9.06272e-30
-3.33118e-27
3.5075e-26
3.0018e-26
2.48755e-25
-4.63696e-25
1.32397e-23
2.03635e-23
-3.17325e-23
-5.20821e-23
-4.44958e-23
-1.65214e-22
-2.73928e-23
5.76753e-24
-2.35118e-23
-2.43398e-23
-3.83901e-23
-6.65427e-23
-7.8896e-23
-1.34579e-22
-1.09591e-22
-7.96203e-23
-9.73147e-23
-3.41358e-23
-1.24876e-22
-2.1006e-22
-1.3802e-22
-1.79017e-22
-2.75162e-23
1.25037e-22
2.27231e-22
4.15404e-22
3.27954e-22
3.38076e-22
1.7164e-22
1.47091e-22
5.80143e-23
1.04823e-24
-3.46445e-23
-7.20313e-23
-6.10202e-23
-5.10558e-23
-3.68464e-23
-3.03869e-23
-2.3522e-23
-1.53652e-23
-8.53757e-24
-4.02848e-24
-1.2644e-24
5.64241e-25
8.52052e-25
1.14013e-24
1.17809e-24
9.06521e-25
6.74031e-25
5.65161e-25
2.89636e-25
2.16635e-25
1.32632e-25
7.18944e-26
4.20619e-26
1.57336e-26
1.038e-26
3.80632e-27
2.66816e-27
-1.5362e-27
5.21626e-28
-3.40099e-27
-3.73519e-27
-2.98382e-27
-1.93964e-27
-8.55112e-28
2.49773e-28
7.49144e-28
1.17193e-27
1.12551e-27
1.46157e-27
8.05476e-28
5.83143e-28
6.60937e-28
4.39055e-28
3.5244e-28
2.48475e-28
1.85612e-28
1.63274e-28
9.94467e-29
6.51953e-29
3.84042e-29
2.61971e-29
2.35827e-29
1.68055e-29
8.63649e-30
4.32492e-30
-3.19871e-28
3.90612e-25
-4.67125e-67
0
-2.41121e-14
7.48888e-16
1.26898e-18
4.04054e-21
-1.71265e-22
1.13081e-24
1.18858e-25
-1.94081e-27
8.26931e-30
6.16486e-32
-2.61212e-34
-1.534e-36
2.15035e-38
-8.68494e-41
1.20743e-43
9.76487e-46
-9.907e-48
8.82204e-50
-8.34972e-52
8.72184e-54
-6.88034e-56
4.1098e-58
-1.44424e-60
2.97322e-63
-1.2385e-65
-2.22847e-09
-8.69732e-08
-9.96247e-08
3.16392e-07
8.72079e-07
-9.68778e-07
-1.09488e-05
-3.36492e-05
-6.03448e-05
-4.93956e-05
0.000105079
0.000588512
0.00162546
0.00360435
0.00694178
0.0118259
0.0189055
0.0275019
0.0387043
0.0512081
0.064015
0.0774603
0.0895362
0.0985044
0.106752
0.104896
0.101117
0.0925769
0.0749735
0.0567443
0.0345286
0.00880516
-0.0145681
-0.0408147
-0.0634553
-0.083687
-0.0995543
-0.111634
-0.118136
-0.120137
-0.119117
-0.113947
-0.105928
-0.0979756
-0.0867352
-0.0774217
-0.0660898
-0.0554866
-0.0471142
-0.038082
-0.0313238
-0.0249651
-0.0194295
-0.0153884
-0.0115663
-0.00867755
-0.00654708
-0.00481601
-0.00350824
-0.00258631
-0.00181859
-0.00131907
-0.000913729
-0.000648704
-0.000448767
-0.000304748
-0.000208882
-0.000140238
-9.31275e-05
-6.31355e-05
-4.0764e-05
-2.65512e-05
-1.73122e-05
-1.09923e-05
-7.13767e-06
-4.52761e-06
-2.928e-06
-2.00333e-06
1.36706e-10
4.11209e-11
1.21122e-10
5.47638e-10
-5.71637e-10
4.43856e-10
1.04406e-09
-2.75407e-09
8.45688e-11
-6.39528e-11
2.6471e-11
-8.08742e-12
-8.54955e-12
1.73708e-11
4.40196e-11
-9.68715e-11
5.97152e-11
-3.5998e-11
-1.90601e-10
1.06707e-14
2.39951e-14
-7.07512e-14
1.42926e-10
1.04122e-08
0
1.20386e-42
3.02229e-35
1.89785e-29
1.08158e-28
-2.18136e-25
-5.46478e-25
9.46255e-25
-1.49059e-25
3.06397e-24
5.27535e-23
4.72639e-23
-3.87318e-23
6.99092e-23
-2.40068e-22
5.96954e-23
7.4903e-23
7.37973e-23
8.92934e-23
6.14523e-23
1.37248e-22
1.28154e-22
5.40942e-23
-2.39848e-23
-9.9483e-23
-1.87846e-22
1.22743e-23
4.45087e-23
-4.67199e-23
-3.30786e-23
-4.32706e-22
-6.39021e-22
-7.77208e-22
-6.58547e-22
-2.83325e-22
-2.569e-22
-2.1327e-23
-1.9392e-23
1.3598e-22
1.51003e-22
1.86322e-22
1.55966e-22
7.36503e-23
8.37443e-23
4.41295e-23
1.68535e-23
9.63581e-24
-4.78917e-24
-6.82066e-24
-6.6689e-24
-5.96149e-24
-4.57328e-24
-2.41726e-24
-1.97796e-24
-1.00716e-24
-3.6526e-25
-3.45321e-25
-3.51233e-25
1.1492e-25
1.07604e-26
5.16309e-26
5.0823e-26
2.80969e-26
3.90362e-26
1.03927e-26
4.45885e-27
7.24856e-27
1.20335e-26
1.9216e-26
1.59244e-26
5.91761e-27
7.34751e-27
5.08075e-27
4.01904e-28
-1.96832e-27
-1.61927e-27
-1.91755e-27
-1.51302e-27
-1.49493e-27
-6.60796e-28
-1.15478e-27
-8.81492e-28
-3.88695e-28
-3.48823e-28
-2.19295e-28
-1.72278e-28
-1.18957e-28
-4.53162e-29
-4.58533e-29
-4.44243e-29
-2.81236e-29
-2.81543e-29
-9.59043e-30
-1.04361e-29
-1.13725e-29
1.07942e-29
1.69896e-28
-1.35429e-25
1.0461e-19
-1.46541e-21
5.44703e-23
-1.37897e-24
7.86164e-27
9.18595e-29
-1.34213e-30
3.25075e-34
2.87057e-35
-8.30171e-38
-9.11708e-40
9.87081e-42
-5.73447e-44
2.15124e-46
-6.77749e-49
2.05239e-51
-2.94745e-53
4.10027e-55
-4.1982e-57
2.91847e-59
-1.30574e-61
3.97324e-64
1.51075e-08
-3.6569e-08
-1.22105e-07
4.2384e-08
6.5749e-07
5.51406e-07
-4.5631e-06
-2.05746e-05
-4.84895e-05
-6.36915e-05
-9.37365e-07
0.000285301
0.00103075
0.00249343
0.00515269
0.00919615
0.0151199
0.0231317
0.0327351
0.0450915
0.0578693
0.0705006
0.0843895
0.0950211
0.102871
0.106281
0.105205
0.0982357
0.0857017
0.0660949
0.0471915
0.0234912
-0.00263647
-0.0281223
-0.0525704
-0.0737435
-0.0918043
-0.105983
-0.115784
-0.119858
-0.119672
-0.117405
-0.109072
-0.102208
-0.0925753
-0.0819074
-0.0718118
-0.0612257
-0.0511382
-0.0421951
-0.0345741
-0.0282669
-0.0223115
-0.0173015
-0.0134651
-0.0101398
-0.0075832
-0.00568195
-0.00407381
-0.00301949
-0.00218021
-0.00154732
-0.00109241
-0.000769599
-0.000545323
-0.000376288
-0.00025168
-0.000173274
-0.000115953
-7.68303e-05
-5.03998e-05
-3.34434e-05
-2.1627e-05
-1.39577e-05
-8.83251e-06
-5.74656e-06
-3.66126e-06
-2.37847e-06
-1.58837e-10
2.41986e-11
-3.19529e-10
3.83933e-11
-4.92867e-10
-4.55942e-10
1.54589e-09
-6.5984e-10
-6.1363e-09
-7.34398e-12
1.53192e-12
1.06995e-12
3.75316e-12
-7.24677e-11
5.63509e-11
-3.22754e-11
9.04564e-12
-1.6719e-20
-9.20987e-18
-1.45709e-15
-5.04169e-14
5.14298e-13
-1.40109e-11
-1.55865e-09
-5.43332e-08
2.48864e-47
1.20099e-39
7.61766e-32
2.96603e-32
4.53897e-26
1.65328e-25
8.49263e-25
7.17751e-26
3.19027e-24
-4.38306e-23
-9.26177e-23
-2.04585e-24
-8.83615e-24
1.27949e-23
2.61549e-22
1.86035e-23
5.59295e-23
1.24393e-22
7.51394e-23
7.54885e-23
1.44706e-22
9.44474e-23
5.24976e-23
-7.80458e-23
-1.76209e-22
-6.58461e-23
-2.55125e-23
4.70519e-23
8.88618e-23
-2.44728e-22
-4.86662e-22
-5.94245e-22
-6.63495e-22
-4.81471e-22
-4.20849e-22
-1.70693e-22
-6.71748e-23
8.80277e-23
9.97283e-23
1.53214e-22
1.30596e-22
1.04055e-22
9.56125e-23
4.5386e-23
2.12848e-23
1.34142e-23
-2.24999e-24
-7.94924e-24
-8.3029e-24
-6.90887e-24
-3.79071e-24
-2.84942e-24
-1.90523e-24
-1.89317e-24
-3.71929e-25
-6.53471e-25
-2.55177e-25
3.46838e-26
2.87341e-26
4.45662e-26
9.5069e-26
5.75946e-26
4.83155e-26
-5.18862e-28
6.96724e-28
2.80049e-27
4.96233e-27
1.43497e-26
1.01682e-26
1.58387e-26
9.10963e-27
1.01217e-26
1.86183e-27
-2.05117e-27
-9.24299e-29
-1.47661e-27
-1.52354e-27
-1.44019e-27
-9.91698e-28
-1.13248e-27
-7.08408e-28
-4.81406e-28
-4.43076e-28
-2.21554e-28
-2.17428e-28
-1.231e-28
-8.3285e-29
-3.61841e-29
-3.38179e-29
-3.74981e-29
-2.32232e-29
-1.18004e-29
-8.93913e-30
-8.8106e-30
-1.60845e-30
6.19283e-29
5.94487e-27
-7.37102e-11
-3.82441e-15
5.47085e-13
3.03671e-11
-4.99622e-12
5.29306e-12
1.54409e-08
-3.76741e-12
1.60352e-11
5.34293e-22
1.35721e-16
0
0
0
0
0
0
0
0
0
0
0
0
0
0
0
0
0
0
0
0
0
0
0
0
0
0
0
0
0
0
0
0
0
0
0
0
0
0
0
0
0
0
0
0
0
0
0
0
0
0
0
0
0
0
0
0
0
0
0
0
0
0
0
0
0
0
0
0
0
0
0
0
0
0
0
0
0
0
0
0
0
0
0
0
0
0
0
0
0
0
0
0
0
0
0
0
0
0
0
0
0
0
0
0
0
0
0
0
0
0
0
0
0
0
0
0
0
0
0
0
0
0
0
0
0
0
0
0
0
0
0
0
0
0
0
0
0
0
0
0
0
0
0
0
0
0
0
0
0
0
0
0
0
0
0
0
0
0
0
0
0
0
0
0
0
0
0
0
0
0
0
0
0
0
0
0
0
0
0
0
0
0
0
0
0
0
0
0
0
0
0
0
0
0
0
0
0
-2.16101e-11
0
0
0
0
0
0
0
0
0
0
0
0
0
0
0
0
0
0
0
0
0
0
0
0
0
0
0
0
0
0
0
0
0
0
0
0
0
0
0
0
0
0
0
0
0
0
0
0
0
0
0
0
0
0
0
0
-1.03392e-139
3.7132e-151
-1.30368e-137
-1.56959e-137
-1.79005e-137
6.75362e-136
1.45257e-132
1.46322e-133
-1.0411e-126
-4.27572e-127
-9.27823e-123
-1.15532e-122
-1.26151e-122
-1.56394e-122
-9.26684e-123
-1.2622e-122
-7.10307e-120
-9.12948e-120
-3.77222e-119
-5.12696e-119
-1.4329e-118
1.1824e-118
-3.03679e-118
-1.74337e-117
-9.22383e-115
-1.19028e-114
1.20853e-113
-2.5384e-113
2.05947e-112
8.05536e-113
-1.05454e-112
-1.01981e-111
4.99739e-113
-1.26516e-111
4.31294e-111
-1.69515e-110
1.22366e-110
-5.21146e-111
1.04446e-109
4.34184e-110
1.09529e-109
-1.37304e-110
3.72821e-109
-5.15178e-109
1.02643e-108
1.07791e-109
1.03465e-108
5.98917e-109
-1.0848e-107
3.05741e-107
-2.07103e-107
5.2694e-108
-1.22263e-106
4.66867e-107
-1.00869e-105
-6.37888e-106
-8.43543e-106
-5.74764e-106
2.06242e-105
-2.22473e-105
1.10466e-103
1.04183e-103
1.11854e-103
-7.32432e-104
-1.04545e-103
7.00864e-103
-4.03052e-104
4.95423e-103
1.86314e-103
3.84792e-102
-1.29735e-101
4.04534e-101
-2.67958e-101
3.51651e-101
-1.21832e-100
-1.97371e-100
1.59796e-102
-5.11768e-100
2.70387e-100
-9.91983e-100
1.1616e-99
-2.54027e-99
8.71797e-100
-3.99102e-99
1.00998e-98
-2.49892e-98
1.98883e-98
-2.07078e-98
3.06945e-98
-9.21937e-99
4.21977e-98
-1.14399e-98
3.96513e-98
-2.70035e-98
6.74528e-98
-6.06832e-98
7.50162e-98
-9.38095e-98
9.46699e-98
-1.2625e-97
1.72144e-97
-4.32768e-98
2.59174e-97
1.61663e-98
2.58992e-97
-1.23263e-97
8.42808e-97
-2.27976e-97
1.29133e-96
-1.83259e-97
1.33544e-96
-1.10287e-96
2.63091e-96
-4.30103e-96
4.93352e-96
-1.52982e-96
5.03408e-96
-3.52694e-96
1.98004e-95
2.77656e-96
1.54691e-95
3.49032e-96
1.47187e-95
1.43574e-96
-5.09061e-96
6.73795e-95
-4.78525e-95
6.25098e-95
-1.41615e-94
1.45081e-94
-2.82492e-94
6.57032e-95
-7.07269e-94
3.20752e-94
-5.44303e-94
9.4812e-95
-4.89418e-94
3.54922e-95
-6.69638e-94
-1.12332e-93
-1.65706e-94
-1.84247e-93
7.3369e-94
-3.70589e-93
8.3897e-93
-1.17716e-92
1.38636e-92
-1.62402e-92
2.3577e-92
-3.65322e-92
3.52e-92
-6.45032e-92
6.09578e-92
-4.70104e-92
1.25748e-91
-2.63126e-91
5.67383e-91
-1.97644e-91
5.51947e-91
-4.85859e-91
5.63098e-91
-5.14402e-91
5.68081e-91
-4.7194e-91
1.29599e-90
-1.38398e-91
1.2613e-90
-4.79571e-91
1.20174e-90
-5.53176e-91
2.53458e-90
-1.44733e-90
3.72369e-90
-1.35534e-90
3.95324e-90
-3.08642e-90
5.86631e-90
-6.51303e-90
1.04741e-89
-1.78936e-90
1.0319e-89
-1.93613e-90
1.74414e-89
8.30475e-90
1.34785e-89
-4.62027e-92
1.05451e-89
-1.1836e-90
1.02181e-89
-7.06615e-90
1.21402e-89
-6.00604e-90
2.76232e-89
-9.7369e-90
2.97764e-89
-2.09197e-89
7.86216e-89
-2.26587e-89
1.03145e-88
-1.57346e-89
9.07232e-89
-1.83492e-89
9.68837e-89
-5.52446e-89
1.27345e-88
6.4328e-90
1.27417e-88
-4.4337e-89
1.59275e-88
5.14412e-89
1.23453e-88
1.87815e-89
9.49265e-89
4.58032e-90
8.43236e-89
-1.17065e-89
6.91362e-89
-2.28892e-89
7.01911e-89
-5.75914e-89
1.65863e-88
-1.47691e-89
1.61936e-88
-1.07638e-88
2.16869e-88
-8.21078e-89
2.01506e-88
-1.0192e-88
3.63982e-88
-6.60523e-90
3.20294e-88
-6.95807e-89
2.91528e-88
-7.21092e-89
4.1691e-88
-1.03181e-88
3.95114e-88
-6.64204e-89
6.70401e-88
-8.86955e-88
1.122e-87
-4.9005e-88
1.59187e-87
8.31682e-89
1.3923e-87
-1.07098e-88
1.64789e-87
5.18127e-90
1.55333e-87
-4.4026e-88
1.9307e-87
7.69481e-89
1.587e-87
-3.27459e-88
2.78622e-87
9.92549e-89
2.56181e-87
-6.44667e-88
2.31973e-87
-5.28703e-88
3.31909e-87
-6.12306e-88
3.78273e-87
-1.39484e-88
3.18142e-87
-3.44103e-88
3.22648e-87
-1.57278e-87
3.26166e-87
-9.17654e-89
3.03961e-87
-9.96054e-88
2.48724e-87
-7.29912e-88
2.30063e-87
-7.72536e-88
2.60036e-87
2.9762e-88
2.02564e-87
-1.12898e-90
1.90763e-87
1.87116e-88
2.01094e-87
5.79768e-88
1.56827e-87
2.69211e-88
1.91803e-87
2.1699e-88
1.8563e-87
1.80076e-88
1.48947e-87
1.2839e-88
1.25836e-87
-2.17316e-88
1.16668e-87
1.17761e-88
9.17104e-88
-5.10454e-89
1.01187e-87
-1.18955e-88
9.09705e-88
-6.60327e-90
7.15433e-88
1.06283e-88
6.02038e-88
5.54332e-89
2.93012e-87
-1.45391e-87
-8.00519e-86
7.73962e-87
-3.60674e-84
-1.67602e-84
-2.89658e-83
2.27903e-83
-3.30353e-82
-2.36266e-82
6.27877e-80
-1.05702e-80
-3.85206e-79
1.88801e-78
1.45878e-76
-7.18017e-77
8.36045e-76
-1.24787e-75
2.1552e-74
-2.12435e-74
3.40298e-73
5.18698e-74
-1.24367e-72
-7.6782e-72
5.6868e-71
-1.27807e-71
2.12988e-69
6.59182e-70
1.33227e-68
1.58289e-68
8.3009e-68
-3.68402e-67
-4.49023e-70
-4.74363e-15
-2.02099e-10
-1.15169e-08
6.10574e-08
9.09847e-08
-1.95552e-08
-4.98507e-12
3.20884e-11
-9.74929e-12
1.37235e-18
-1.10582e-10
9.8187e-21
-1.67384e-22
1.20038e-24
1.21841e-25
-2.00091e-27
7.92456e-30
6.25036e-32
-2.29708e-34
-1.6921e-36
2.14105e-38
-8.06126e-41
8.43597e-44
1.10212e-45
-1.08363e-47
9.41093e-50
-9.12119e-52
9.6671e-54
-7.58294e-56
4.6291e-58
-1.58472e-60
3.42956e-63
-1.27739e-65
-1.06035e-66
7.53518e-09
-8.33289e-12
-3.65877e-08
-9.88826e-08
5.42004e-08
4.76594e-07
5.07205e-08
-4.28797e-06
-1.52873e-05
-2.94566e-05
-2.5293e-05
4.59248e-05
0.00027672
0.000784214
0.00169966
0.00324053
0.00528954
0.00801406
0.0112253
0.0143836
0.018149
0.0205634
0.0209794
0.0215236
0.0185866
0.0139068
0.00682231
-0.00142725
-0.0116431
-0.0224445
-0.0337674
-0.0420194
-0.0483043
-0.0543872
-0.0576614
-0.0571011
-0.0562583
-0.0530846
-0.0484257
-0.0431135
-0.0353693
-0.0291479
-0.023417
-0.0152926
-0.0119642
-0.00770314
-0.00440535
-0.00272293
-0.00082105
0.000247686
0.00104597
0.00142861
0.00107765
0.001177
0.00109489
0.000941133
0.000832575
0.000692652
0.000526555
0.000506921
0.000350703
0.000280694
0.000212035
0.000157057
0.000114473
7.40024e-05
5.00878e-05
3.88905e-05
2.55119e-05
1.67831e-05
1.11373e-05
7.88412e-06
4.91051e-06
3.21049e-06
2.24285e-06
1.61489e-06
1.00104e-06
5.54066e-07
2.47628e-07
7.0751e-11
-1.20218e-06
1.10395e-14
-3.93863e-11
9.77086e-11
1.23336e-10
2.20373e-10
9.59787e-11
3.67174e-10
-4.3609e-11
-1.72151e-09
3.76177e-11
-2.4535e-11
5.37948e-11
-2.8928e-10
-1.17629e-11
1.27924e-11
2.4744e-11
4.49791e-22
8.87013e-12
2.01788e-11
3.92984e-12
-1.35623e-11
9.7776e-11
-5.39778e-11
4.17429e-11
-1.62327e-11
1.44955e-11
-1.7618e-11
-5.92347e-17
2.105e-18
8.1691e-09
1.3362e-08
-1.73945e-14
-1.23065e-14
-4.51418e-10
-3.54091e-10
-5.05447e-10
8.49472e-11
1.36921e-12
-6.11264e-11
3.54471e-11
-3.53866e-11
-2.61645e-11
-3.47143e-11
-1.00799e-11
4.19771e-10
1.32417e-10
6.4408e-10
6.66208e-10
2.43244e-10
5.83848e-10
-2.46918e-10
4.88611e-10
-9.6168e-10
-9.27209e-11
-7.31251e-10
-5.83716e-10
8.5981e-11
-2.36753e-10
-6.97082e-10
1.43469e-09
-2.94847e-10
2.3624e-09
-5.16999e-10
2.50908e-09
-3.71927e-09
1.34322e-09
-1.26278e-09
2.81407e-09
3.38581e-10
6.34177e-09
8.38137e-09
1.23052e-08
1.15236e-08
2.24221e-08
3.93329e-09
3.00042e-08
-2.42295e-08
2.61394e-08
-6.50454e-08
7.52676e-09
-1.12882e-07
-1.54017e-08
-1.28208e-07
-3.11573e-08
-8.04516e-08
4.29784e-09
6.35242e-08
1.14056e-07
2.58702e-07
3.1342e-07
4.01808e-07
5.75017e-07
2.59648e-07
7.52311e-07
-5.00984e-07
5.86345e-07
-2.28825e-06
-2.91098e-07
-5.48057e-06
-2.33977e-06
-9.99986e-06
-6.12405e-06
-1.54703e-05
-1.18023e-05
-2.05371e-05
-1.97171e-05
-2.29029e-05
-2.88905e-05
-1.81245e-05
-3.80639e-05
2.0768e-08
-4.56888e-05
4.00707e-05
-4.74378e-05
0.000112222
-4.29018e-05
0.000230302
-2.17395e-05
0.000416248
2.05042e-05
0.000666631
0.00010771
0.00102277
0.000223227
0.00151234
0.000375247
0.00209281
0.000635652
0.00279617
0.000876695
0.00367072
0.00123833
0.00464356
0.00159407
0.00578608
0.00198289
0.00717435
0.00243329
0.00852637
0.00306191
0.00998127
0.00336543
0.0114579
0.00391788
0.0131229
0.00426956
0.0143954
0.00472499
0.0158476
0.0048034
0.01709
0.00478862
0.0180711
0.00503577
0.0189396
0.00432472
0.0193205
0.00451889
0.0189597
0.00330185
0.0187847
0.00165797
0.0184609
0.000614834
0.0167662
-0.000519136
0.0152741
-0.00353346
0.0125756
-0.00453939
0.00906892
-0.00769784
0.00593667
-0.0111508
0.00156844
-0.0132618
-0.00207933
-0.0177168
-0.00485663
-0.0202047
-0.00899309
-0.0218173
-0.0137605
-0.0248657
-0.0185711
-0.0275948
-0.022823
-0.0308521
-0.0271479
-0.0327524
-0.0318411
-0.0344977
-0.0348273
-0.0368014
-0.0393162
-0.0374781
-0.0424691
-0.0386852
-0.0447345
-0.039019
-0.0463044
-0.0381961
-0.0479023
-0.0378239
-0.0487427
-0.036734
-0.0491832
-0.0355678
-0.0496076
-0.0339053
-0.0484414
-0.0318897
-0.0475143
-0.0290845
-0.0458045
-0.026476
-0.0440462
-0.0242503
-0.0420083
-0.0204365
-0.0395428
-0.0192006
-0.0359775
-0.015249
-0.0336315
-0.0110803
-0.0313128
-0.00935911
-0.0276467
-0.00714536
-0.0250049
-0.00289222
-0.0219251
-0.0017112
-0.0189817
0.00104722
-0.0155276
0.00324076
-0.0133743
0.00584474
-0.0109816
0.00702002
-0.00821724
0.00824372
-0.00713545
0.0104479
-0.00462392