/*--------------------------------*- C++ -*----------------------------------*\
  =========                 |
  \\      /  F ield         | OpenFOAM: The Open Source CFD Toolbox
   \\    /   O peration     | Website:  https://openfoam.org
    \\  /    A nd           | Version:  7
     \\/     M anipulation  |
\*---------------------------------------------------------------------------*/
FoamFile
{
    version     2.0;
    format      ascii;
    class       volScalarField;
    location    "0.4";
    object      T;
}
// * * * * * * * * * * * * * * * * * * * * * * * * * * * * * * * * * * * * * //

dimensions      [0 0 0 1 0 0 0];

internalField   nonuniform List<scalar> 
10000
(
0.5
0.0669146
-0.0353169
-0.0277115
-0.00789976
0.00112931
0.00220711
0.000963794
3.88562e-05
-0.000206219
-0.000130475
-2.60559e-05
1.76156e-05
1.74838e-05
6.08578e-06
-9.05862e-07
-2.20743e-06
-1.13457e-06
-1.05866e-07
2.48732e-07
1.88756e-07
5.1807e-08
-1.90314e-08
-2.64633e-08
-1.21431e-08
-1.678e-09
5.83545e-10
-7.8599e-10
-1.75616e-09
-1.31632e-09
-2.15894e-10
6.54298e-10
9.4904e-10
7.90632e-10
4.55773e-10
1.55743e-10
-2.45759e-11
-9.23388e-11
-9.11475e-11
-6.29004e-11
-3.33053e-11
-1.25774e-11
-1.54624e-12
2.65703e-12
3.23632e-12
2.4386e-12
1.44475e-12
6.97678e-13
2.58735e-13
4.93681e-14
-2.67462e-14
-4.03024e-14
-3.16873e-14
-1.94976e-14
-1.012e-14
-4.44603e-15
-1.55087e-15
-3.05677e-16
1.13346e-16
1.85343e-16
1.45333e-16
8.94721e-17
4.73164e-17
2.19554e-17
8.80295e-18
2.82476e-18
4.9236e-19
-2.18908e-19
-3.1641e-19
-2.37719e-19
-1.4307e-19
-7.52087e-20
-3.54309e-20
-1.49477e-20
-5.48797e-21
-1.58814e-21
-2.03777e-22
1.68869e-22
1.95746e-22
1.37666e-22
7.99811e-23
4.12874e-23
1.94078e-23
8.34325e-24
3.23948e-24
1.08957e-24
2.76325e-25
1.42432e-26
-4.52184e-26
-4.25765e-26
-2.788e-26
-1.55719e-26
-7.8558e-27
-3.65668e-27
-1.5797e-27
-6.2984e-28
-2.2689e-28
-6.9646e-29
-1.49893e-29
4.53353e-30
0.933085
0.5
0.14482
-0.0139075
-0.0411718
-0.0230289
-0.00507433
0.00215701
0.00250723
0.00101071
-9.36193e-08
-0.000255324
-0.000158213
-3.18213e-05
2.20241e-05
2.24006e-05
8.17964e-06
-9.48512e-07
-2.86625e-06
-1.56971e-06
-2.04431e-07
3.1144e-07
2.62032e-07
8.71902e-08
-1.01109e-08
-2.39095e-08
-7.82389e-09
2.88426e-09
2.11047e-09
-3.09556e-09
-6.32272e-09
-5.96154e-09
-3.51391e-09
-9.48392e-10
6.61145e-10
1.20534e-09
1.06528e-09
6.73349e-10
3.06775e-10
7.0353e-11
-3.95139e-11
-6.7111e-11
-5.62696e-11
-3.53854e-11
-1.76414e-11
-6.49977e-12
-9.82826e-13
1.02794e-12
1.32289e-12
1.00379e-12
6.00999e-13
2.99482e-13
1.21426e-13
3.4122e-14
-4.70785e-16
-9.69561e-15
-9.13346e-15
-6.12595e-15
-3.4197e-15
-1.64685e-15
-6.75965e-16
-2.17637e-16
-3.43556e-17
2.1836e-17
2.86485e-17
2.11741e-17
1.26176e-17
6.5418e-18
3.00858e-18
1.21367e-18
4.05391e-19
8.79735e-20
-1.32402e-20
-3.2006e-20
-2.5874e-20
-1.60923e-20
-8.67214e-21
-4.19896e-21
-1.84133e-21
-7.22122e-22
-2.41523e-22
-5.8058e-23
5.93138e-25
1.29823e-23
1.13475e-23
7.25392e-24
3.99019e-24
1.98232e-24
9.045e-25
3.79446e-25
1.44288e-25
4.76414e-26
1.18656e-26
5.71182e-28
-1.92548e-27
-1.78863e-27
-1.16142e-27
-6.45163e-28
-3.24332e-28
-1.41371e-28
1.03532
0.85518
0.5
0.182448
0.00830364
-0.0419281
-0.032441
-0.0120093
3.84412e-05
0.00307766
0.00201936
0.000522644
-0.000189734
-0.000261936
-0.000118926
-6.07928e-06
2.86025e-05
2.02418e-05
5.19559e-06
-2.29364e-06
-2.96827e-06
-1.30165e-06
-2.25377e-08
3.43725e-07
2.27295e-07
5.73662e-08
-1.18775e-08
-5.51048e-09
1.55538e-08
2.09932e-08
1.16656e-08
-8.31883e-10
-8.41843e-09
-9.67153e-09
-7.03896e-09
-3.47716e-09
-7.63049e-10
6.35351e-10
1.00676e-09
8.39912e-10
5.17844e-10
2.41132e-10
6.92662e-11
-1.10449e-11
-3.45438e-11
-3.16269e-11
-2.09913e-11
-1.12213e-11
-4.77972e-12
-1.37335e-12
5.46913e-14
4.51564e-13
4.24785e-13
2.85381e-13
1.58036e-13
7.40334e-14
2.82984e-14
7.28823e-15
-5.11814e-16
-2.37352e-15
-2.10275e-15
-1.36986e-15
-7.52268e-16
-3.6015e-16
-1.4915e-16
-5.01835e-17
-1.02456e-17
2.60137e-18
4.82074e-18
3.79612e-18
2.33527e-18
1.24347e-18
5.90329e-19
2.49891e-19
9.153e-20
2.6059e-20
2.89657e-21
-3.21096e-21
-3.51657e-21
-2.43448e-21
-1.40045e-21
-7.15998e-22
-3.32569e-22
-1.40549e-22
-5.30811e-23
-1.691e-23
-3.64468e-24
3.63736e-25
1.08607e-24
8.76865e-25
5.41885e-25
2.92066e-25
1.43133e-25
6.47337e-26
2.70415e-26
1.03024e-26
3.44827e-27
9.0327e-28
9.15656e-29
-1.60614e-28
1.02771
1.01391
0.817552
0.5
0.206389
0.0268058
-0.0388677
-0.0384381
-0.0184166
-0.00302402
0.00284105
0.00282245
0.00118552
4.26325e-05
-0.000296282
-0.000211923
-6.02256e-05
1.88439e-05
2.95176e-05
1.43768e-05
1.20787e-06
-3.29511e-06
-2.55549e-06
-7.91854e-07
1.5691e-07
2.82257e-07
1.0947e-07
-1.62852e-08
-2.76487e-08
1.30222e-08
4.36952e-08
4.49894e-08
2.72863e-08
7.11738e-09
-5.83982e-09
-1.01568e-08
-8.82351e-09
-5.43615e-09
-2.32979e-09
-3.74886e-10
4.86011e-10
6.52951e-10
5.1147e-10
3.05146e-10
1.4172e-10
4.43479e-11
-6.2054e-13
-1.45908e-11
-1.44083e-11
-9.91094e-12
-5.51444e-12
-2.52506e-12
-8.84032e-13
-1.45575e-13
1.05414e-13
1.41481e-13
1.07057e-13
6.43384e-14
3.28723e-14
1.43254e-14
5.0264e-15
1.066e-15
-2.7159e-16
-5.19979e-16
-4.16329e-16
-2.58394e-16
-1.37591e-16
-6.45095e-17
-2.63892e-17
-8.88695e-18
-1.91403e-18
3.29981e-19
7.43524e-19
5.9839e-19
3.71505e-19
1.99526e-19
9.59255e-20
4.14944e-20
1.58463e-20
4.99429e-21
9.7239e-22
-2.26392e-22
-4.1306e-22
-3.17754e-22
-1.92661e-22
-1.02358e-22
-4.93184e-23
-2.17612e-23
-8.73748e-24
-3.10302e-24
-8.93684e-25
-1.36221e-25
6.62974e-26
8.60527e-26
6.14034e-26
3.58349e-26
1.86261e-26
8.88737e-27
3.93891e-27
1.41154e-27
1.0079
1.04117
0.991696
0.793611
0.5
0.223365
0.042154
-0.0343031
-0.0421139
-0.0239644
-0.00647534
0.00197761
0.00332499
0.00186777
0.000400618
-0.000245063
-0.000285982
-0.00012961
-8.13137e-06
3.15141e-05
2.39795e-05
7.37081e-06
-1.82781e-06
-3.31864e-06
-1.71307e-06
-2.48777e-07
2.33328e-07
1.24115e-07
-6.59388e-08
-1.20955e-07
-6.32638e-08
1.65288e-08
6.13031e-08
6.36663e-08
4.22892e-08
1.75016e-08
3.5603e-10
-7.2321e-09
-8.0959e-09
-5.89985e-09
-3.21726e-09
-1.22299e-09
-1.26802e-10
2.95952e-10
3.48936e-10
2.59231e-10
1.50383e-10
6.95432e-11
2.29803e-11
1.69158e-12
-5.20568e-12
-5.62553e-12
-4.00454e-12
-2.30013e-12
-1.10675e-12
-4.3187e-13
-1.1292e-13
8.29794e-15
3.79398e-14
3.38162e-14
2.21041e-14
1.21249e-14
5.75674e-15
2.33148e-15
7.38222e-16
1.10235e-16
-7.85007e-17
-9.92163e-17
-7.24743e-17
-4.28802e-17
-2.21162e-17
-1.01298e-17
-4.07334e-18
-1.35751e-18
-2.94642e-19
4.33401e-20
1.05908e-19
8.55875e-20
5.3179e-20
2.86283e-20
1.38475e-20
6.06653e-21
2.37687e-21
7.94145e-22
1.90596e-22
-2.10314e-24
-4.27012e-23
-3.72644e-23
-2.37937e-23
-1.30726e-23
-6.48516e-24
-2.95358e-24
-1.23578e-24
-4.67951e-25
-1.53292e-25
-3.73613e-26
-1.10507e-27
6.67489e-27
5.98203e-27
4.03313e-27
0.998871
1.02303
1.04193
0.973194
0.776635
0.5
0.236308
0.0551561
-0.0291433
-0.0442026
-0.0286476
-0.0100134
0.000663021
0.00351519
0.00249279
0.000838186
-0.000110123
-0.000325098
-0.000202473
-4.99675e-05
2.36043e-05
3.1236e-05
1.50825e-05
1.56556e-06
-3.09535e-06
-2.39991e-06
-6.50587e-07
2.28415e-07
2.25779e-07
-6.82492e-08
-2.47234e-07
-2.31355e-07
-1.13931e-07
-3.67073e-10
6.00189e-08
6.90557e-08
5.02275e-08
2.56098e-08
7.08548e-09
-2.61538e-09
-5.56218e-09
-4.938e-09
-3.18241e-09
-1.58021e-09
-5.42655e-10
-2.78699e-11
1.49236e-10
1.60026e-10
1.14137e-10
6.48491e-11
2.99619e-11
1.03572e-11
1.43406e-12
-1.57197e-12
-1.93376e-12
-1.43298e-12
-8.48659e-13
-4.25096e-13
-1.78606e-13
-5.73663e-14
-7.6247e-15
7.64464e-15
9.14148e-15
6.63118e-15
3.90126e-15
1.98493e-15
8.82001e-16
3.31879e-16
9.28524e-17
5.80672e-18
-1.67726e-17
-1.67216e-17
-1.13323e-17
-6.42732e-18
-3.21955e-18
-1.44246e-18
-5.70147e-19
-1.87584e-19
-4.05076e-20
5.58575e-21
1.40175e-20
1.13052e-20
7.01145e-21
3.77571e-21
1.83311e-21
8.10394e-22
3.23507e-22
1.12571e-22
3.04386e-23
2.9457e-24
-3.8385e-24
-3.99379e-24
-2.7012e-24
-1.53419e-24
-7.81439e-25
-3.65442e-25
-1.57857e-25
-6.25393e-26
-2.22707e-26
-4.48272e-27
0.997793
1.00507
1.03244
1.03887
0.957846
0.763692
0.5
0.246668
0.0663827
-0.0238073
-0.0451887
-0.0325522
-0.0134733
-0.000959177
0.00341733
0.00301636
0.0013143
9.73403e-05
-0.000320939
-0.000268384
-0.000102287
4.96175e-06
3.37451e-05
2.26558e-05
6.27846e-06
-1.91058e-06
-2.74076e-06
-9.3649e-07
4.11518e-07
6.1658e-07
2.02851e-07
-2.17174e-07
-3.79302e-07
-3.15801e-07
-1.63414e-07
-3.02145e-08
4.22162e-08
6.04521e-08
4.87007e-08
2.84638e-08
1.15991e-08
1.60195e-09
-2.55992e-09
-3.25073e-09
-2.48787e-09
-1.46407e-09
-6.75685e-10
-2.13301e-10
-1.47017e-12
6.46501e-11
6.48409e-11
4.48874e-11
2.515e-11
1.16558e-11
4.19749e-12
7.99552e-13
-3.9018e-13
-5.93642e-13
-4.63103e-13
-2.83366e-13
-1.47151e-13
-6.54279e-14
-2.37668e-14
-5.64315e-15
7.17206e-16
2.08079e-15
1.75836e-15
1.12011e-15
6.07899e-16
2.90212e-16
1.2133e-16
4.23303e-17
1.01141e-17
-6.79872e-19
-2.96995e-18
-2.54036e-18
-1.62079e-18
-8.86539e-19
-4.32808e-19
-1.90124e-19
-7.39852e-20
-2.40488e-20
-5.15763e-21
6.82564e-22
1.73645e-21
1.39636e-21
8.64182e-22
4.65344e-22
2.2659e-22
1.0092e-22
4.09013e-23
1.46858e-23
4.30449e-24
7.01451e-25
-2.83374e-25
-3.93829e-25
-2.8558e-25
-1.68089e-25
-8.7795e-26
-3.9415e-26
0.999036
0.997843
1.01201
1.03844
1.0343
0.944844
0.753332
0.5
0.255249
0.0762288
-0.0184971
-0.0453946
-0.0357829
-0.0167686
-0.00277966
0.00306915
0.00341658
0.00179619
0.00036237
-0.000270849
-0.000318994
-0.000159634
-2.34406e-05
3.01127e-05
2.84662e-05
1.12608e-05
-3.58739e-07
-3.1591e-06
-1.45128e-06
5.7749e-07
1.28891e-06
9.11239e-07
2.1417e-07
-2.76435e-07
-4.30072e-07
-3.5168e-07
-1.94215e-07
-5.9487e-08
1.72449e-08
4.3139e-08
3.97415e-08
2.60177e-08
1.28608e-08
4.15879e-09
-1.64716e-10
-1.58716e-09
-1.57247e-09
-1.08438e-09
-5.95505e-10
-2.59617e-10
-7.67082e-11
2.0295e-12
2.47267e-11
2.37034e-11
1.60747e-11
8.93384e-12
4.16756e-12
1.55902e-12
3.64169e-13
-7.03237e-14
-1.63598e-13
-1.36776e-13
-8.68504e-14
-4.6693e-14
-2.17582e-14
-8.60496e-15
-2.5998e-15
-2.90716e-16
3.67488e-16
4.10397e-16
2.89809e-16
1.68347e-16
8.56196e-17
3.86688e-17
1.52628e-17
4.91385e-18
9.4212e-19
-2.72337e-19
-4.60733e-19
-3.54028e-19
-2.15091e-19
-1.1408e-19
-5.44666e-20
-2.35187e-20
-9.02932e-21
-2.90538e-21
-6.206e-22
7.77915e-23
2.02706e-22
1.62776e-22
1.00603e-22
5.41885e-23
2.64611e-23
1.18642e-23
4.87144e-24
1.79462e-24
5.58417e-25
1.16485e-25
-1.24583e-26
-4.48279e-26
0.999961
0.997493
0.999962
1.01842
1.04211
1.02914
0.933617
0.744751
0.5
0.262537
0.0849758
-0.0133115
-0.0450397
-0.0384394
-0.0198576
-0.00471762
0.00251112
0.00368596
0.00225935
0.000669313
-0.000176089
-0.000348176
-0.0002161
-5.8855e-05
2.06413e-05
3.19438e-05
1.59177e-05
1.01001e-06
-4.31501e-06
-2.96943e-06
1.85087e-09
1.74688e-06
1.86069e-06
1.09919e-06
2.63486e-07
-2.47481e-07
-4.0139e-07
-3.35558e-07
-1.97619e-07
-7.74036e-08
-5.17285e-09
2.41802e-08
2.75817e-08
2.02735e-08
1.14471e-08
4.89421e-09
1.19295e-09
-3.87334e-10
-7.76083e-10
-6.60264e-10
-4.2165e-10
-2.19563e-10
-9.1653e-11
-2.5831e-11
1.18178e-12
8.5156e-12
7.939e-12
5.3155e-12
2.94475e-12
1.38646e-12
5.37363e-13
1.45009e-13
-2.9516e-15
-4.0284e-14
-3.71685e-14
-2.46646e-14
-1.37363e-14
-6.67102e-15
-2.81373e-15
-9.76765e-16
-2.20406e-16
3.18547e-17
8.19124e-17
6.75654e-17
4.25314e-17
2.30249e-17
1.10918e-17
4.76685e-18
1.77958e-18
5.24288e-19
7.05244e-20
-5.43933e-20
-6.46486e-20
-4.58893e-20
-2.67839e-20
-1.38383e-20
-6.48153e-21
-2.7578e-21
-1.04688e-21
-3.34283e-22
-7.14632e-23
8.19944e-24
2.24319e-23
1.80369e-23
1.11464e-23
6.00958e-24
2.94353e-24
1.32811e-24
5.53446e-25
1.71697e-25
1.00021
0.998989
0.996922
1.00302
1.02396
1.0442
1.02381
0.923771
0.737463
0.5
0.268847
0.0928295
-0.00829715
-0.0442768
-0.0406094
-0.0227241
-0.0067143
0.00178143
0.00382571
0.00268602
0.00100292
-4.10944e-05
-0.000352601
-0.0002665
-9.75563e-05
7.3125e-06
3.42159e-05
2.10946e-05
2.73278e-06
-6.20211e-06
-6.0481e-06
-2.21074e-06
1.08324e-06
2.37915e-06
2.0887e-06
1.1664e-06
3.22435e-07
-1.65125e-07
-3.20347e-07
-2.81251e-07
-1.76321e-07
-8.0411e-08
-1.94246e-08
8.80304e-09
1.61015e-08
1.36776e-08
8.66278e-09
4.35078e-09
1.62247e-09
2.59691e-10
-2.44315e-10
-3.23579e-10
-2.48077e-10
-1.4947e-10
-7.47179e-11
-3.0213e-11
-8.27991e-12
4.09026e-13
2.67829e-12
2.46455e-12
1.64013e-12
9.09428e-13
4.33043e-13
1.73457e-13
5.21527e-14
4.8065e-15
-8.67555e-15
-9.31558e-15
-6.52989e-15
-3.77617e-15
-1.90574e-15
-8.46956e-16
-3.22793e-16
-9.47929e-17
-1.05144e-17
1.26635e-17
1.40117e-17
9.82127e-18
5.69407e-18
2.91299e-18
1.33925e-18
5.4999e-19
1.94277e-19
5.1682e-20
3.17323e-21
-8.58797e-21
-8.37459e-21
-5.59257e-21
-3.15734e-21
-1.59528e-21
-7.35018e-22
-3.08861e-22
-1.16177e-22
-3.6908e-23
-7.9406e-24
7.92643e-25
2.36489e-24
1.91096e-24
1.17961e-24
6.22349e-25
1.00013
1
0.997981
0.997159
1.00648
1.02865
1.04519
1.0185
0.915024
0.731153
0.5
0.274394
0.0999445
-0.00347336
-0.0432147
-0.0423675
-0.0253668
-0.00872755
0.000914032
0.00384194
0.00306358
0.00134854
0.000126575
-0.00033287
-0.000308388
-0.000136929
-7.73169e-06
3.73891e-05
2.91042e-05
7.00845e-06
-7.26866e-06
-1.00866e-05
-6.32212e-06
-1.46838e-06
1.59657e-06
2.4865e-06
2.01557e-06
1.11601e-06
3.58983e-07
-7.14818e-08
-2.21391e-07
-2.10024e-07
-1.40313e-07
-7.13393e-08
-2.47407e-08
-9.13125e-10
7.47722e-09
7.98519e-09
5.71136e-09
3.23971e-09
1.47417e-09
4.79167e-10
3.09561e-11
-1.12187e-10
-1.19791e-10
-8.51749e-11
-4.90793e-11
-2.37856e-11
-9.41068e-12
-2.554e-12
9.67905e-14
7.7706e-13
7.15401e-13
4.76042e-13
2.6511e-13
1.27869e-13
5.2807e-14
1.72723e-14
2.94882e-15
-1.53115e-15
-2.1476e-15
-1.61722e-15
-9.7546e-16
-5.1113e-16
-2.37614e-16
-9.70532e-17
-3.29934e-17
-7.47577e-18
8.3831e-19
2.48348e-18
2.06008e-18
1.29909e-18
7.07141e-19
3.45126e-19
1.52275e-19
5.99348e-20
2.00135e-20
4.70838e-21
-1.79028e-22
-1.18544e-21
-1.01579e-21
-6.46311e-22
-3.54848e-22
-1.75906e-22
-7.99186e-23
-3.32334e-23
-1.24114e-23
-3.93175e-24
-8.72134e-25
2.4968e-25
1.00003
1.00026
0.999477
0.997178
0.998022
1.01001
1.03255
1.04539
1.01331
0.90717
0.725606
0.5
0.279329
0.106439
0.00115473
-0.0419324
-0.0437765
-0.0277922
-0.0107272
-6.12459e-05
0.00374429
0.00338427
0.0016931
0.000317135
-0.000293859
-0.000343805
-0.000178049
-2.49011e-05
4.22438e-05
4.21317e-05
1.69102e-05
-4.47751e-06
-1.28656e-05
-1.12434e-05
-5.8035e-06
-9.75898e-07
1.6129e-06
2.21484e-06
1.73732e-06
9.74634e-07
3.56866e-07
3.49665e-09
-1.31563e-07
-1.40726e-07
-1.00768e-07
-5.58999e-08
-2.34506e-08
-5.41885e-09
2.15521e-09
3.93879e-09
3.30324e-09
2.09937e-09
1.09152e-09
4.55447e-10
1.28031e-10
-6.60936e-12
-4.32754e-11
-4.03741e-11
-2.71347e-11
-1.51078e-11
-7.15569e-12
-2.79394e-12
-7.62974e-13
1.05024e-14
2.09376e-13
1.95486e-13
1.3079e-13
7.33785e-14
3.58922e-14
1.52495e-14
5.33647e-15
1.21899e-15
-1.68937e-16
-4.50602e-16
-3.74986e-16
-2.37646e-16
-1.29414e-16
-6.26694e-17
-2.70513e-17
-1.01273e-17
-2.97858e-18
-3.84535e-19
3.29481e-19
3.84634e-19
2.72696e-19
1.59361e-19
8.24642e-20
3.86602e-20
1.64384e-20
6.21396e-21
1.95717e-21
3.93929e-22
-7.26174e-23
-1.49126e-22
-1.1656e-22
-7.13127e-23
-3.82415e-23
-1.86507e-23
-8.39176e-24
-2.98328e-24
0.999982
1.00016
1.00019
0.998814
0.996675
0.999337
1.01347
1.03578
1.04504
1.0083
0.900056
0.720671
0.5
0.283765
0.112407
0.00558987
-0.040488
-0.044889
-0.0300111
-0.012691
-0.00111718
0.00354647
0.0036469
0.00202829
0.000521968
-0.000242378
-0.000378617
-0.000226652
-4.92861e-05
4.5564e-05
5.96044e-05
3.42425e-05
5.29031e-06
-1.1179e-05
-1.45443e-05
-1.05752e-05
-4.93661e-06
-7.2601e-07
1.32768e-06
1.75148e-06
1.36408e-06
7.83538e-07
3.1876e-07
4.80551e-08
-6.45784e-08
-8.46335e-08
-6.57968e-08
-3.94482e-08
-1.87604e-08
-6.35792e-09
-4.79404e-10
1.50539e-09
1.65876e-09
1.20082e-09
6.98717e-10
3.3821e-10
1.30534e-10
3.128e-11
-6.28788e-12
-1.48148e-11
-1.2601e-11
-8.11358e-12
-4.40028e-12
-2.05035e-12
-7.95733e-13
-2.2144e-13
-4.25979e-15
5.25893e-14
5.05402e-14
3.41839e-14
1.93748e-14
9.62039e-15
4.19711e-15
1.55267e-15
4.23122e-16
1.83675e-17
-8.37353e-17
-8.11969e-17
-5.47061e-17
-3.10526e-17
-1.56347e-17
-7.0724e-18
-2.84152e-18
-9.64788e-19
-2.29332e-19
1.01433e-20
6.04452e-20
5.20665e-20
3.33238e-20
1.83695e-20
9.11476e-21
4.12571e-21
1.69605e-21
6.16603e-22
1.8253e-22
2.97125e-23
-1.26376e-23
-1.74867e-23
-1.27065e-23
-7.53966e-24
0.999983
1.00003
1.00026
0.999957
0.998132
0.996485
1.00096
1.01677
1.03844
1.04428
1.00347
0.893561
0.716234
0.5
0.287787
0.117921
0.00983933
-0.0389248
-0.045749
-0.0320362
-0.0146027
-0.00222828
0.00326699
0.00385911
0.00235482
0.000739215
-0.00018165
-0.000418212
-0.000290636
-9.00314e-05
3.9198e-05
7.62363e-05
5.72047e-05
2.30768e-05
-2.45085e-06
-1.34e-05
-1.3546e-05
-8.93535e-06
-3.9758e-06
-6.17799e-07
9.37447e-07
1.25495e-06
9.87271e-07
5.83917e-07
2.58806e-07
6.45987e-08
-2.24486e-08
-4.52585e-08
-3.91859e-08
-2.53696e-08
-1.32771e-08
-5.45502e-09
-1.38167e-09
2.78667e-10
6.92766e-10
6.05013e-10
3.95478e-10
2.14737e-10
9.7884e-11
3.51876e-11
7.03759e-12
-2.83133e-12
-4.63256e-12
-3.68692e-12
-2.29727e-12
-1.22144e-12
-5.62953e-13
-2.18437e-13
-6.25094e-14
-3.57232e-15
1.2319e-14
1.2408e-14
8.53255e-15
4.89878e-15
2.47148e-15
1.10541e-15
4.28492e-16
1.31679e-16
1.97568e-17
-1.2785e-17
-1.62916e-17
-1.18985e-17
-7.07869e-18
-3.70595e-18
-1.74819e-18
-7.42759e-19
-2.77132e-19
-8.34492e-20
-1.33401e-20
6.51234e-21
8.77666e-21
6.42249e-21
3.8191e-21
2.009e-21
9.61884e-22
4.22041e-22
1.68167e-22
5.88363e-23
1.64904e-23
-4.71746e-25
0.999994
0.999978
1.00012
1.0003
0.999599
0.997507
0.996583
1.00278
1.01986
1.04061
1.04321
0.998845
0.887594
0.712212
0.499999
0.29146
0.123042
0.0139129
-0.0372756
-0.0463947
-0.0338837
-0.0164533
-0.00337335
0.00292663
0.00403662
0.00268458
0.000978548
-0.000104935
-0.000460836
-0.00037426
-0.000156163
1.22925e-05
8.24554e-05
7.94784e-05
4.62214e-05
1.35169e-05
-6.0489e-06
-1.25649e-05
-1.1173e-05
-6.97243e-06
-3.05643e-06
-5.56502e-07
5.75899e-07
8.23815e-07
6.63901e-07
4.05781e-07
1.93129e-07
6.22046e-08
-4.17937e-10
-2.09024e-08
-2.12428e-08
-1.49673e-08
-8.50669e-09
-3.96069e-09
-1.39137e-09
-2.05417e-10
2.05216e-10
2.62058e-10
1.98753e-10
1.20402e-10
6.18287e-11
2.67829e-11
9.02454e-12
1.46467e-12
-1.0039e-12
-1.34688e-12
-1.02067e-12
-6.2021e-13
-3.24985e-13
-1.48815e-13
-5.79983e-14
-1.71647e-14
-1.65825e-15
2.68098e-15
2.89963e-15
2.04014e-15
1.18977e-15
6.10442e-16
2.79558e-16
1.12797e-16
3.78492e-17
8.33451e-18
-1.15966e-18
-2.97515e-18
-2.43855e-18
-1.53461e-18
-8.37157e-19
-4.10827e-19
-1.82969e-19
-7.31474e-20
-2.51545e-20
-6.42245e-21
-2.27094e-22
1.20051e-21
1.12057e-21
7.3824e-22
4.14977e-22
2.10015e-22
9.76972e-23
3.63519e-23
1
0.999978
1.00001
1.00021
1.00025
0.999162
0.996984
0.996931
1.00472
1.02272
1.04237
1.04193
0.99441
0.88208
0.708539
0.499999
0.294837
0.127822
0.0178212
-0.0355673
-0.0468632
-0.0355768
-0.0182463
-0.00454254
0.00254049
0.00419652
0.00303679
0.00126093
7.5128e-06
-0.000492235
-0.000471746
-0.000250422
-4.37479e-05
6.763e-05
9.16855e-05
6.84016e-05
3.3713e-05
7.04667e-06
-6.65942e-06
-1.02139e-05
-8.42742e-06
-5.09919e-06
-2.24837e-06
-4.90593e-07
3.04063e-07
4.9818e-07
4.1703e-07
2.64271e-07
1.33699e-07
5.04973e-08
8.34106e-09
-7.63254e-09
-1.0374e-08
-8.11695e-09
-4.99586e-09
-2.5586e-09
-1.06745e-09
-3.10295e-10
1.62966e-12
8.99082e-11
8.74625e-11
6.02017e-11
3.43755e-11
1.68636e-11
6.99537e-12
2.22379e-12
2.82844e-13
-3.1093e-13
-3.68509e-13
-2.69253e-13
-1.60542e-13
-8.32614e-14
-3.80176e-14
-1.49345e-14
-4.58424e-15
-6.19801e-16
5.36056e-16
6.45669e-16
4.68318e-16
2.78259e-16
1.45342e-16
6.80874e-17
2.84532e-17
1.02163e-17
2.75902e-18
1.70201e-19
-4.73743e-19
-4.67727e-19
-3.16197e-19
-1.80547e-19
-9.21404e-20
-4.27962e-20
-1.80708e-20
-6.78832e-21
-2.11986e-21
-4.15087e-22
8.94257e-23
1.69261e-22
1.30656e-22
8.02519e-23
1
0.999992
0.999971
1.00006
1.00029
1.00011
0.998686
0.996583
0.997489
1.00671
1.02537
1.04378
1.04049
0.990162
0.87696
0.705162
0.499998
0.297959
0.132302
0.0215759
-0.0338221
-0.0471921
-0.0371495
-0.0200034
-0.00574652
0.00210635
0.00434491
0.0034272
0.00161098
0.000184777
-0.00048549
-0.000564103
-0.000364309
-0.00012986
2.48101e-05
8.48089e-05
8.1563e-05
5.25729e-05
2.29994e-05
3.34632e-06
-5.6806e-06
-7.50194e-06
-5.91579e-06
-3.52616e-06
-1.58346e-06
-4.07713e-07
1.29884e-07
2.77697e-07
2.45525e-07
1.61948e-07
8.65107e-08
3.65332e-08
9.84689e-09
-1.40225e-09
-4.43829e-09
-4.03238e-09
-2.70579e-09
-1.50495e-09
-7.04503e-10
-2.63061e-10
-5.87152e-11
1.62274e-11
3.20521e-11
2.66524e-11
1.70792e-11
9.30323e-12
4.39494e-12
1.75778e-12
5.31014e-13
5.08877e-14
-8.76633e-14
-9.57042e-14
-6.80644e-14
-4.0022e-14
-2.06169e-14
-9.41446e-15
-3.73728e-15
-1.19079e-15
-2.04166e-16
9.58892e-17
1.36921e-16
1.03365e-16
6.27918e-17
3.34305e-17
1.60105e-17
6.90347e-18
2.6169e-18
8.04763e-19
1.3673e-19
-5.76584e-20
-8.27437e-20
-6.17387e-20
-3.7193e-20
-1.97723e-20
-9.55296e-21
-4.22451e-21
-1.6941e-21
-5.9502e-22
-1.66359e-22
6.34558e-24
1
1
0.99998
0.999981
1.00013
1.00033
0.999903
0.998204
0.996314
0.998219
1.00873
1.02779
1.04489
1.03893
0.986092
0.872184
0.702038
0.499993
0.300861
0.136524
0.0251935
-0.0320543
-0.0474167
-0.0386439
-0.0217656
-0.00702179
0.00159469
0.00446372
0.00385372
0.0020437
0.000454788
-0.000407651
-0.00062174
-0.000477304
-0.000236294
-4.52885e-05
5.40308e-05
7.89139e-05
6.38767e-05
3.73922e-05
1.50051e-05
1.51685e-06
-4.17899e-06
-5.08675e-06
-3.90716e-06
-2.31911e-06
-1.06797e-06
-3.16266e-07
3.42401e-08
1.41934e-07
1.35679e-07
9.36665e-08
5.26294e-08
2.41947e-08
8.2414e-09
9.3634e-10
-1.53688e-09
-1.81261e-09
-1.35263e-09
-8.15393e-10
-4.17762e-10
-1.80151e-10
-5.96649e-11
-8.43422e-12
8.09387e-12
1.01017e-11
7.56702e-12
4.58963e-12
2.40646e-12
1.10202e-12
4.27646e-13
1.23787e-13
8.62627e-15
-2.29831e-14
-2.37456e-14
-1.65618e-14
-9.64359e-15
-4.94902e-15
-2.26541e-15
-9.10411e-16
-3.00913e-16
-6.15757e-17
1.42976e-17
2.75781e-17
2.19519e-17
1.3692e-17
7.44184e-18
3.64262e-18
1.61604e-18
6.40743e-19
2.15884e-19
5.13913e-20
-1.82975e-21
-1.30692e-20
-1.13483e-20
-7.3106e-21
-4.06491e-21
-2.04201e-21
-9.43589e-22
-3.43744e-22
1
1
0.999995
0.99997
1.00001
1.0002
1.00032
0.999638
0.997741
0.996175
0.999086
1.01073
1.03001
1.04575
1.03728
0.982191
0.867707
0.699126
0.49998
0.303574
0.14053
0.0287045
-0.03026
-0.047558
-0.0400993
-0.023584
-0.00842637
0.000947224
0.00450352
0.00428495
0.00255073
0.00083076
-0.000231217
-0.000612596
-0.000561258
-0.000343693
-0.000133021
1.20472e-06
5.76216e-05
6.30195e-05
4.58414e-05
2.51061e-05
9.50086e-06
7.27029e-07
-2.76213e-06
-3.22526e-06
-2.44582e-06
-1.45669e-06
-6.90242e-07
-2.29336e-07
-9.13342e-09
6.54951e-08
7.03149e-08
5.12284e-08
3.02376e-08
1.48952e-08
5.85838e-09
1.42826e-09
-3.0056e-10
-7.14444e-10
-6.20758e-10
-4.08896e-10
-2.27059e-10
-1.08445e-10
-4.32376e-11
-1.24669e-11
-4.13264e-13
2.92624e-12
2.91949e-12
2.02863e-12
1.17817e-12
5.98839e-13
2.67345e-13
1.01254e-13
2.83469e-14
1.42477e-15
-5.67439e-15
-5.65656e-15
-3.89304e-15
-2.25269e-15
-1.15456e-15
-5.30786e-16
-2.16198e-16
-7.4015e-17
-1.73565e-17
1.33199e-18
5.24395e-18
4.48502e-18
2.88786e-18
1.60556e-18
8.03311e-19
3.65941e-19
1.50757e-19
5.43993e-20
1.55211e-20
1.92795e-21
-1.68805e-21
-1.93801e-21
-1.36307e-21
-7.85771e-22
1
1
1
0.999986
0.999968
1.00005
1.00027
1.00027
0.999331
0.997314
0.996158
1.00006
1.01269
1.03203
1.04639
1.03558
0.978448
0.863488
0.696387
0.499953
0.306133
0.14438
0.0321657
-0.0284017
-0.0476055
-0.0415324
-0.0255005
-0.0100234
8.78355e-05
0.0043878
0.00465782
0.00309277
0.00130028
5.40484e-05
-0.000512785
-0.000588474
-0.000428067
-0.000221916
-6.51221e-05
2.00506e-05
4.86656e-05
4.55205e-05
3.0803e-05
1.61117e-05
5.89218e-06
4.21142e-07
-1.67251e-06
-1.92803e-06
-1.45864e-06
-8.76613e-07
-4.27961e-07
-1.56258e-07
-2.29259e-08
2.62399e-08
3.4033e-08
2.65102e-08
1.64594e-08
8.60783e-09
3.74527e-09
1.21543e-09
1.23459e-10
-2.25676e-10
-2.57406e-10
-1.89592e-10
-1.14176e-10
-5.93118e-11
-2.6616e-11
-9.81843e-12
-2.38451e-12
2.97206e-13
9.0772e-13
7.89662e-13
5.18446e-13
2.90798e-13
1.44107e-13
6.30289e-14
2.34292e-14
6.4085e-15
2.48431e-16
-1.32994e-15
-1.29867e-15
-8.86628e-16
-5.11397e-16
-2.62316e-16
-1.21299e-16
-5.01114e-17
-1.77336e-17
-4.63102e-18
-1.45307e-19
9.29891e-19
8.80381e-19
5.89427e-19
3.36088e-19
1.71974e-19
8.03296e-20
3.42221e-20
1.30353e-20
4.17487e-21
9.06141e-22
-3.1021e-22
1
1
1
0.999999
0.999976
0.999976
1.0001
1.00032
1.00018
0.998996
0.996935
0.996257
1.00112
1.0146
1.03387
1.04686
1.03384
0.974853
0.859485
0.69378
0.499904
0.308579
0.148151
0.0356696
-0.0263955
-0.0474987
-0.0429149
-0.027523
-0.0118562
-0.00105553
0.00402933
0.00488709
0.00360201
0.00182196
0.000433825
-0.000315566
-0.000540332
-0.000467701
-0.000293269
-0.000132066
-2.68722e-05
2.31693e-05
3.60382e-05
3.05292e-05
1.96375e-05
9.96243e-06
3.59586e-06
3.00518e-07
-9.36441e-07
-1.09251e-06
-8.31896e-07
-5.06682e-07
-2.54903e-07
-1.0061e-07
-2.27553e-08
8.10003e-09
1.52339e-08
1.29655e-08
8.50488e-09
4.69938e-09
2.21038e-09
8.42405e-10
2.03913e-10
-3.64188e-11
-9.26419e-11
-8.05958e-11
-5.32573e-11
-2.99261e-11
-1.46949e-11
-6.22964e-12
-2.1227e-12
-4.09254e-13
1.58093e-13
2.55588e-13
2.02495e-13
1.27208e-13
6.93694e-14
3.36766e-14
1.44931e-14
5.31545e-15
1.43545e-15
5.13812e-17
-2.97446e-16
-2.88217e-16
-1.96112e-16
-1.13056e-16
-5.81438e-17
-2.70762e-17
-1.13495e-17
-4.14255e-18
-1.17982e-18
-1.29889e-19
1.49865e-19
1.65534e-19
1.16403e-19
6.83076e-20
3.57828e-20
1.71237e-20
7.54712e-21
2.49507e-21
1
1
1
1
0.999993
0.999968
0.999995
1.00016
1.00035
1.00004
0.998647
0.996614
0.996463
1.00224
1.01644
1.03554
1.04718
1.03211
0.971396
0.855652
0.691252
0.499818
0.310955
0.151942
0.039346
-0.0241065
-0.0471189
-0.0441583
-0.0296036
-0.0139228
-0.00252455
0.00335413
0.00488445
0.00399486
0.00233137
0.000869385
-3.52671e-05
-0.000413278
-0.000449404
-0.000331411
-0.000186108
-7.37696e-05
-8.26682e-06
1.94178e-05
2.4383e-05
1.93062e-05
1.19825e-05
5.96695e-06
2.1621e-06
2.35054e-07
-4.86032e-07
-5.88785e-07
-4.54954e-07
-2.81857e-07
-1.46078e-07
-6.15414e-08
-1.76635e-08
8.35776e-10
6.1721e-09
5.97039e-09
4.17398e-09
2.43385e-09
1.22156e-09
5.18545e-10
1.6829e-10
2.11891e-11
-2.55764e-11
-3.07217e-11
-2.2955e-11
-1.40172e-11
-7.44709e-12
-3.48262e-12
-1.40024e-12
-4.39087e-13
-5.9707e-14
5.49053e-14
6.71063e-14
4.96719e-14
3.01311e-14
1.60596e-14
7.66856e-15
3.2599e-15
1.18538e-15
3.19274e-16
1.3139e-17
-6.36834e-17
-6.1974e-17
-4.22107e-17
-2.4381e-17
-1.2592e-17
-5.91097e-18
-2.51424e-18
-9.4442e-19
-2.88806e-19
-4.89532e-20
2.06015e-20
2.96436e-20
2.22245e-20
1.3476e-20
6.8625e-21
1
1
1
1
1
0.999984
0.999965
1.00002
1.00022
1.00035
0.999865
0.998299
0.996364
0.996763
1.00338
1.0182
1.03707
1.04741
1.0304
0.96806
0.851916
0.688721
0.499655
0.313295
0.155858
0.0433486
-0.0213607
-0.0462945
-0.0451123
-0.0316291
-0.0161591
-0.00430862
0.0023254
0.00458122
0.00419078
0.00275443
0.00130511
0.000295044
-0.000220241
-0.000372001
-0.000327782
-0.000216735
-0.000111499
-3.9237e-05
-6.84312e-07
1.39297e-05
1.54018e-05
1.16283e-05
7.04076e-06
3.47374e-06
1.27964e-06
1.81895e-07
-2.32815e-07
-3.02299e-07
-2.39038e-07
-1.51147e-07
-8.06712e-08
-3.59267e-08
-1.20346e-08
-1.40677e-09
2.14825e-09
2.56743e-09
1.94331e-09
1.19863e-09
6.37535e-10
2.93456e-10
1.11747e-10
2.88938e-11
-2.18548e-12
-9.90924e-12
-9.02124e-12
-6.09282e-12
-3.50016e-12
-1.77458e-12
-7.94884e-13
-3.04021e-13
-8.72511e-14
-6.09532e-15
1.60792e-14
1.66859e-14
1.17318e-14
6.91957e-15
3.62033e-15
1.70627e-15
7.18916e-16
2.60331e-16
7.0582e-17
3.803e-18
-1.30717e-17
-1.29333e-17
-8.85494e-18
-5.13629e-18
-2.66779e-18
-1.26341e-18
-5.45306e-19
-2.10348e-19
-6.82509e-20
-1.47093e-20
1.78355e-21
6.04506e-21
1
1
1
1
1
0.999998
0.999976
0.99997
1.00006
1.00027
1.00032
0.999665
0.997975
0.996187
0.997123
1.00451
1.01986
1.0385
1.04763
1.02878
0.964797
0.848157
0.686054
0.499335
0.315605
0.15999
0.0478285
-0.0179714
-0.0448248
-0.0455813
-0.0334282
-0.018437
-0.00633472
0.00095959
0.00394743
0.00413135
0.00302388
0.00168068
0.00063102
1.25932e-05
-0.000246224
-0.000282662
-0.000218846
-0.000133456
-6.39149e-05
-2.01336e-05
1.5918e-06
9.03933e-06
9.20224e-06
6.71718e-06
4.00119e-06
1.96999e-06
7.44038e-07
1.33586e-07
-1.01392e-07
-1.47863e-07
-1.208e-07
-7.82349e-08
-4.29947e-08
-2.00942e-08
-7.5122e-09
-1.64506e-09
5.39569e-10
1.01371e-09
8.55151e-10
5.61701e-10
3.15821e-10
1.55354e-10
6.57693e-11
2.20802e-11
3.80601e-12
-2.19289e-12
-3.12582e-12
-2.43789e-12
-1.52979e-12
-8.36691e-13
-4.07632e-13
-1.75701e-13
-6.40853e-14
-1.67121e-14
1.44316e-16
4.26145e-15
3.96856e-15
2.68122e-15
1.54602e-15
7.96893e-16
3.71809e-16
1.55738e-16
5.63809e-17
1.5508e-17
1.12384e-18
-2.57175e-18
-2.62263e-18
-1.81274e-18
-1.05828e-18
-5.53526e-19
-2.64642e-19
-1.15877e-19
-4.60943e-20
-1.17848e-20
1
1
1
1
1
1
0.999992
0.999971
0.999985
1.0001
1.0003
1.00027
0.999465
0.997694
0.996058
0.997483
1.00558
1.02147
1.03996
1.04795
1.02723
0.961484
0.844164
0.683038
0.498713
0.317839
0.164381
0.0528985
-0.0137773
-0.0425161
-0.0453553
-0.0347956
-0.0205786
-0.00847257
-0.000670184
0.00300179
0.00379391
0.00309373
0.00194402
0.000926961
0.000252186
-9.15143e-05
-0.000204355
-0.000193406
-0.000136859
-7.83995e-05
-3.54136e-05
-1.00963e-05
1.74088e-06
5.44635e-06
5.24563e-06
3.74019e-06
2.20616e-06
1.08988e-06
4.24143e-07
9.23031e-08
-3.86258e-08
-6.87584e-08
-5.87404e-08
-3.91222e-08
-2.21433e-08
-1.08025e-08
-4.38829e-09
-1.26806e-09
-6.87579e-12
3.53765e-10
3.52889e-10
2.50157e-10
1.48906e-10
7.76861e-11
3.56038e-11
1.38271e-11
3.94878e-12
1.7232e-13
-8.67291e-13
-8.78751e-13
-6.19046e-13
-3.67076e-13
-1.92778e-13
-9.07464e-14
-3.77868e-14
-1.31739e-14
-3.09517e-15
3.19471e-16
1.05397e-15
9.09139e-16
5.95247e-16
3.37016e-16
1.71662e-16
7.94944e-17
3.31893e-17
1.20526e-17
3.38396e-18
3.22035e-19
-4.83863e-19
-5.17103e-19
-3.62484e-19
-2.13471e-19
-1.12757e-19
-4.9192e-20
1
1
1
1
1
1
1
0.999987
0.999973
1
1.00013
1.00031
1.00021
0.999295
0.997442
0.995911
0.997779
1.00661
1.02315
1.0416
1.04845
1.02569
0.957877
0.839612
0.679364
0.497563
0.319872
0.168998
0.0585972
-0.00868206
-0.0392223
-0.0442493
-0.0355261
-0.0223844
-0.0105535
-0.00244382
0.00181028
0.00319656
0.00294808
0.0020614
0.00114516
0.000466019
6.89269e-05