/*--------------------------------*- C++ -*----------------------------------*\
  =========                 |
  \\      /  F ield         | OpenFOAM: The Open Source CFD Toolbox
   \\    /   O peration     | Website:  https://openfoam.org
    \\  /    A nd           | Version:  7
     \\/     M anipulation  |
\*---------------------------------------------------------------------------*/
FoamFile
{
    version     2.0;
    format      ascii;
    class       volScalarField;
    location    "0.6";
    object      T;
}
// * * * * * * * * * * * * * * * * * * * * * * * * * * * * * * * * * * * * * //

dimensions      [0 0 0 1 0 0 0];

internalField   nonuniform List<scalar> 
10000
(
0.5
0.0669146
-0.0353169
-0.0277115
-0.00789976
0.00112931
0.00220711
0.000963794
3.88563e-05
-0.000206219
-0.000130475
-2.60559e-05
1.76156e-05
1.74837e-05
6.08561e-06
-9.06071e-07
-2.20759e-06
-1.13469e-06
-1.06163e-07
2.47859e-07
1.87024e-07
4.9395e-08
-2.13888e-08
-2.77866e-08
-1.17495e-08
4.1507e-10
3.66279e-09
2.2529e-09
3.9643e-10
-4.00052e-10
-3.76434e-10
-1.27637e-10
2.76709e-11
5.53471e-11
2.68859e-11
-4.58344e-13
-9.9929e-12
-7.67514e-12
-2.54986e-12
9.24399e-13
2.25465e-12
2.31661e-12
1.85077e-12
1.20414e-12
5.37993e-13
-2.1329e-14
-3.77121e-13
-5.02607e-13
-4.46453e-13
-2.97125e-13
-1.37858e-13
-1.92847e-14
4.40131e-14
6.17365e-14
5.27346e-14
3.41268e-14
1.66615e-14
4.74501e-15
-1.40708e-15
-3.43739e-15
-3.24799e-15
-2.25571e-15
-1.24819e-15
-5.27957e-16
-1.21551e-16
5.47698e-17
9.92776e-17
8.55549e-17
5.62181e-17
3.03179e-17
1.31645e-17
3.88664e-18
-1.49212e-19
-1.34859e-18
-1.31565e-18
-9.16646e-19
-5.26331e-19
-2.55246e-19
-1.00443e-19
-2.5953e-20
3.00154e-21
1.02495e-20
9.1831e-21
6.11636e-21
3.42636e-21
1.65752e-21
6.77976e-22
2.10192e-22
2.22729e-23
-3.3859e-23
-3.80929e-23
-2.74801e-23
-1.62938e-23
-8.41535e-24
-3.81965e-24
-1.48114e-24
-4.37453e-25
-4.22774e-26
6.67948e-26
8.13971e-26
0.933085
0.5
0.14482
-0.0139075
-0.0411718
-0.0230289
-0.00507433
0.00215701
0.00250723
0.00101071
-9.38734e-08
-0.000255324
-0.000158213
-3.18213e-05
2.20241e-05
2.24005e-05
8.17946e-06
-9.48178e-07
-2.86443e-06
-1.56602e-06
-2.00131e-07
3.13491e-07
2.58847e-07
7.77036e-08
-2.39624e-08
-3.79441e-08
-1.77301e-08
-5.20268e-10
4.83156e-09
3.30892e-09
7.47051e-10
-4.8307e-10
-5.33781e-10
-2.0226e-10
3.09716e-11
8.44594e-11
4.72081e-11
3.21982e-12
-1.72798e-11
-1.85655e-11
-1.24296e-11
-5.97036e-12
-1.213e-12
1.87792e-12
3.53324e-12
3.88416e-12
3.20473e-12
1.9815e-12
7.40557e-13
-1.57519e-13
-5.98419e-13
-6.61772e-13
-5.10738e-13
-2.97438e-13
-1.1681e-13
-4.01334e-15
4.56457e-14
5.35608e-14
4.16605e-14
2.51417e-14
1.16019e-14
3.16968e-15
-8.61115e-16
-2.078e-15
-1.9141e-15
-1.30502e-15
-7.18534e-16
-3.12141e-16
-8.63453e-17
1.27003e-17
4.09076e-17
3.78723e-17
2.57837e-17
1.44425e-17
6.70976e-18
2.38873e-18
3.91107e-19
-3.13899e-19
-4.25496e-19
-3.30212e-19
-2.03883e-19
-1.06844e-19
-4.74725e-20
-1.667e-20
-3.16271e-21
1.47261e-21
2.27431e-21
1.79467e-21
1.11858e-21
5.97837e-22
2.78242e-22
1.09778e-22
3.25796e-23
2.79098e-24
-5.63056e-24
-6.00619e-24
-4.23362e-24
-2.47447e-24
-1.27307e-24
-4.8993e-25
1.03532
0.85518
0.5
0.182448
0.00830364
-0.0419281
-0.032441
-0.0120093
3.84408e-05
0.00307766
0.00201936
0.000522644
-0.000189734
-0.000261936
-0.000118925
-6.07707e-06
2.86043e-05
2.02421e-05
5.19525e-06
-2.29056e-06
-2.95623e-06
-1.27806e-06
8.46548e-09
3.71768e-07
2.40891e-07
5.03702e-08
-3.68806e-08
-3.89006e-08
-1.47965e-08
1.66843e-09
5.44705e-09
3.09229e-09
4.22762e-10
-6.39869e-10
-5.42697e-10
-1.54101e-10
7.93431e-11
1.17553e-10
6.7281e-11
1.37262e-11
-1.52574e-11
-2.40965e-11
-2.30072e-11
-1.79471e-11
-1.12873e-11
-4.466e-12
1.07776e-12
4.33038e-12
5.17051e-12
4.27335e-12
2.62436e-12
1.04497e-12
-3.26727e-14
-5.40922e-13
-6.25015e-13
-4.87269e-13
-2.90297e-13
-1.25287e-13
-2.21223e-14
2.54016e-14
3.67102e-14
3.05383e-14
1.94893e-14
9.8534e-15
3.56187e-15
3.19908e-16
-8.93058e-16
-1.04579e-15
-7.92305e-16
-4.77558e-16
-2.35724e-16
-8.92649e-17
-1.68474e-17
1.06365e-17
1.5923e-17
1.2801e-17
8.05839e-18
4.25142e-18
1.86607e-18
6.16106e-19
7.28354e-20
-1.03205e-19
-1.21503e-19
-8.98362e-20
-5.3867e-20
-2.767e-20
-1.21475e-20
-4.27106e-21
-8.66664e-22
2.98568e-22
5.12382e-22
4.10323e-22
2.57422e-22
1.38666e-22
6.54916e-23
2.6668e-23
8.62555e-24
1.43276e-24
-7.71346e-25
-1.24279e-24
1.02771
1.01391
0.817552
0.5
0.206389
0.0268058
-0.0388677
-0.0384381
-0.0184166
-0.00302402
0.00284105
0.00282245
0.00118552
4.2633e-05
-0.000296282
-0.000211922
-6.02234e-05
1.88442e-05
2.95095e-05
1.43558e-05
1.17969e-06
-3.31264e-06
-2.541e-06
-7.3481e-07
2.46587e-07
3.77208e-07
1.78827e-07
8.57214e-09
-4.67524e-08
-3.36085e-08
-8.56189e-09
4.23672e-09
5.33743e-09
2.26027e-09
-1.22935e-10
-7.86151e-10
-4.96429e-10
-8.01008e-11
1.30646e-10
1.54695e-10
1.02932e-10
4.73708e-11
8.94205e-12
-1.42519e-11
-2.64052e-11
-2.93133e-11
-2.46547e-11
-1.55984e-11
-6.01168e-12
1.16768e-12
4.81823e-12
5.4154e-12
4.2123e-12
2.45153e-12
9.40152e-13
-7.69472e-15
-4.20558e-13
-4.76962e-13
-3.64843e-13
-2.15799e-13
-9.56072e-14
-2.2076e-14
1.18926e-14
2.09753e-14
1.8204e-14
1.19591e-14
6.32007e-15
2.55523e-15
5.44513e-16
-2.80156e-16
-4.66939e-16
-3.89794e-16
-2.50555e-16
-1.33049e-16
-5.74054e-17
-1.7319e-17
-9.77603e-20
5.05598e-18
5.06082e-18
3.54555e-18
2.04408e-18
1.00058e-18
4.04071e-19
1.15084e-19
1.53444e-22
-3.14396e-20
-3.04624e-20
-2.09033e-20
-1.19538e-20
-5.91556e-21
-2.5091e-21
-8.46892e-22
-1.54625e-22
7.14229e-23
1.07128e-22
8.29817e-23
5.11134e-23
2.72155e-23
1.28593e-23
4.18539e-24
1.0079
1.04117
0.991696
0.793611
0.5
0.223365
0.042154
-0.0343031
-0.0421139
-0.0239644
-0.00647534
0.00197761
0.00332499
0.00186777
0.000400612
-0.000245072
-0.000285991
-0.000129611
-8.12739e-06
3.15022e-05
2.39228e-05
7.25577e-06
-1.97863e-06
-3.44893e-06
-1.76137e-06
-1.84537e-07
3.91241e-07
3.18271e-07
9.93709e-08
-2.70306e-08
-4.7599e-08
-2.39778e-08
-1.93922e-09
5.85215e-09
4.47927e-09
1.17955e-09
-6.57145e-10
-8.98292e-10
-4.73553e-10
-6.39154e-11
1.32358e-10
1.71738e-10
1.46157e-10
1.04082e-10
5.97803e-11
1.83896e-11
-1.3838e-11
-3.16564e-11
-3.46123e-11
-2.71098e-11
-1.55028e-11
-5.01525e-12
1.74162e-12
4.56716e-12
4.61574e-12
3.33388e-12
1.82308e-12
6.57528e-13
-1.56117e-14
-2.84543e-13
-3.0973e-13
-2.30706e-13
-1.34511e-13
-6.01156e-14
-1.57284e-14
4.64809e-15
1.04334e-14
9.38943e-15
6.29835e-15
3.4277e-15
1.48156e-15
4.17225e-16
-4.48749e-17
-1.76911e-16
-1.65517e-16
-1.1291e-16
-6.33981e-17
-2.96805e-17
-1.08352e-17
-2.07521e-18
1.08385e-18
1.66276e-18
1.32537e-18
8.29846e-19
4.40467e-19
1.9931e-19
7.27241e-20
1.62336e-20
-3.91227e-21
-8.0857e-21
-6.70854e-21
-4.28432e-21
-2.33277e-21
-1.1079e-21
-4.50671e-22
-1.43392e-22
-2.10312e-23
1.63304e-23
2.0439e-23
1.53467e-23
0.998871
1.02303
1.04193
0.973194
0.776635
0.5
0.236308
0.0551561
-0.0291433
-0.0442026
-0.0286476
-0.0100134
0.000663016
0.00351519
0.00249279
0.000838178
-0.000110139
-0.000325109
-0.00020245
-4.98925e-05
2.37007e-05
3.12705e-05
1.49634e-05
1.26022e-06
-3.52123e-06
-2.80622e-06
-8.96003e-07
2.13502e-07
4.11952e-07
2.18704e-07
2.6958e-08
-4.67506e-08
-3.98224e-08
-1.29755e-08
3.27445e-09
6.23521e-09
3.26009e-09
2.26581e-10
-1.02498e-09
-9.84628e-10
-5.4023e-10
-1.70089e-10
3.59226e-11
1.32487e-10
1.69109e-10
1.63819e-10
1.25621e-10
7.00605e-11
1.67686e-11
-1.97291e-11
-3.50974e-11
-3.36726e-11
-2.35079e-11
-1.18491e-11
-2.93649e-12
2.00163e-12
3.63475e-12
3.30635e-12
2.2251e-12
1.14645e-12
3.87416e-13
-1.97607e-14
-1.69347e-13
-1.76376e-13
-1.2799e-13
-7.35588e-14
-3.30244e-14
-9.37806e-15
1.41029e-15
4.61368e-15
4.31876e-15
2.95406e-15
1.64655e-15
7.46967e-16
2.45148e-16
1.77807e-17
-5.67207e-17
-6.22276e-17
-4.52749e-17
-2.6731e-17
-1.33117e-17
-5.44238e-18
-1.55774e-18
9.86885e-21
4.45382e-19
4.30939e-19
2.95918e-19
1.68964e-19
8.30784e-20
3.46489e-20
1.11541e-20
1.53119e-21
-1.45891e-21
-1.78591e-21
-1.31845e-21
-7.90541e-22
-4.11035e-22
-1.87335e-22
-7.36527e-23
-1.34867e-23
0.997793
1.00507
1.03244
1.03887
0.957846
0.763692
0.5
0.246668
0.0663827
-0.0238073
-0.0451887
-0.0325522
-0.0134733
-0.000959178
0.00341734
0.00301639
0.00131432
9.733e-05
-0.000320961
-0.000268331
-0.000102053
5.40097e-06
3.42592e-05
2.29965e-05
6.21789e-06
-2.43293e-06
-3.56994e-06
-1.78397e-06
-1.83395e-07
4.05313e-07
3.36866e-07
1.12166e-07
-2.35658e-08
-4.99871e-08
-2.71763e-08
-3.26047e-09
6.42327e-09
5.7911e-09
2.23218e-09
-2.62613e-10
-1.0983e-09
-1.01729e-09
-6.97114e-10
-4.06509e-10
-1.74894e-10
1.09922e-11
1.40354e-10
1.96405e-10
1.82747e-10
1.25521e-10
5.79757e-11
4.75323e-12
-2.44399e-11
-3.21694e-11
-2.67717e-11
-1.66491e-11
-7.35165e-12
-1.19757e-12
1.75343e-12
2.46902e-12
2.04868e-12
1.29481e-12
6.32443e-13
2.00949e-13
-1.61162e-14
-8.98868e-14
-8.9959e-14
-6.38056e-14
-3.62315e-14
-1.634e-14
-4.94664e-15
2.33777e-16
1.83573e-15
1.80361e-15
1.26003e-15
7.1798e-16
3.38675e-16
1.23054e-16
2.18356e-17
-1.46321e-17
-2.09131e-17
-1.64458e-17
-1.02112e-17
-5.35898e-18
-2.37344e-18
-8.22165e-19
-1.44084e-19
8.53705e-20
1.21598e-19
9.41767e-20
5.80075e-20
3.06211e-20
1.40035e-20
5.35148e-21
1.4574e-21
4.56086e-24
-3.68182e-22
-3.48631e-22
-2.35346e-22
-1.24013e-22
0.999036
0.997843
1.01201
1.03844
1.0343
0.944844
0.753332
0.5
0.255249
0.0762288
-0.0184971
-0.0453946
-0.0357829
-0.0167686
-0.00277966
0.00306919
0.00341666
0.00179625
0.000362307
-0.000271062
-0.000319196
-0.000159502
-2.26983e-05
3.14482e-05
3.00039e-05
1.24139e-05
-5.02061e-08
-3.78029e-06
-2.69444e-06
-7.81381e-07
2.58333e-07
4.1857e-07
2.16595e-07
2.50339e-08
-4.85642e-08
-4.17805e-08
-1.42017e-08
3.45355e-09
7.62758e-09
5.13087e-09
1.84867e-09
-6.90532e-11
-7.73771e-10
-9.16887e-10
-8.6656e-10
-7.10154e-10
-4.64777e-10
-1.85926e-10
4.66977e-11
1.7941e-10
2.07974e-10
1.65645e-10
9.643e-11
3.39641e-11
-6.13114e-12
-2.32073e-11
-2.43277e-11
-1.78604e-11
-9.9803e-12
-3.84036e-12
-2.48153e-13
1.24484e-12
1.46367e-12
1.12397e-12
6.7287e-13
3.13765e-13
9.44138e-14
-1.00143e-14
-4.31133e-14
-4.1745e-14
-2.90597e-14
-1.63529e-14
-7.41834e-15
-2.37161e-15
-7.71089e-17
6.60947e-16
6.91902e-16
4.95395e-16
2.88535e-16
1.40767e-16
5.51259e-17
1.3645e-17
-2.41293e-18
-6.26656e-18
-5.46161e-18
-3.5821e-18
-1.97345e-18
-9.30819e-19
-3.62816e-19
-9.83993e-20
2.65133e-21
2.87398e-20
2.6805e-20
1.8049e-20
1.02048e-20
5.02497e-21
2.14018e-21
7.40525e-22
1.61182e-22
-7.90519e-23
0.999961
0.997493
0.999962
1.01842
1.04211
1.02914
0.933617
0.744751
0.5
0.262537
0.0849758
-0.0133115
-0.0450396
-0.0384394
-0.0198576
-0.00471768
0.00251112
0.00368607
0.00225945
0.000669094
-0.000176905
-0.000349474
-0.000217239
-5.89605e-05
2.2113e-05
3.47796e-05
1.91931e-05
3.57785e-06
-3.23186e-06
-3.45341e-06
-1.5229e-06
-4.73593e-08
4.30337e-07
3.22284e-07
9.76692e-08
-3.04096e-08
-5.29342e-08
-2.9188e-08
-4.5795e-09
6.44892e-09
7.30093e-09
4.66643e-09
2.25843e-09
8.22569e-10
-2.44043e-11
-5.99935e-10
-9.33481e-10
-9.73084e-10
-7.55953e-10
-4.1479e-10
-9.58482e-11
1.11278e-10
1.9085e-10
1.7722e-10
1.19847e-10
5.83441e-11
1.34595e-11
-1.03131e-11
-1.75927e-11
-1.55884e-11
-1.02859e-11
-5.20991e-12
-1.72981e-12
9.65299e-14
7.50653e-13
7.72626e-13
5.56166e-13
3.17923e-13
1.42541e-13
4.10106e-14
-5.1264e-15
-1.88999e-14
-1.78378e-14
-1.22393e-14
-6.84649e-15
-3.12931e-15
-1.05011e-15
-1.01878e-16
2.1518e-16
2.45709e-16
1.812e-16
1.07974e-16
5.43099e-17
2.25602e-17
6.73195e-18
2.41465e-19
-1.64169e-18
-1.6636e-18
-1.16329e-18
-6.72553e-19
-3.34747e-19
-1.41905e-19
-4.71883e-20
-7.73163e-21
4.96911e-21
6.73485e-21
5.10905e-21
3.11067e-21
1.64523e-21
6.42503e-22
1.00021
0.998989
0.996922
1.00302
1.02396
1.0442
1.02381
0.923771
0.737463
0.5
0.268847
0.0928295
-0.00829713
-0.0442768
-0.0406094
-0.0227243
-0.00671456
0.00178129
0.00382595
0.00268654
0.001003
-4.24486e-05
-0.000355818
-0.000270828
-0.000101219
6.15723e-06
3.63678e-05
2.58328e-05
8.25177e-06
-1.80537e-06
-3.89324e-06
-2.32249e-06
-5.06957e-07
3.45797e-07
4.08696e-07
1.89526e-07
9.25817e-09
-5.46861e-08
-4.54311e-08
-1.83202e-08
-3.05041e-10
5.80704e-09
5.81254e-09
4.42952e-09
3.24782e-09
2.19282e-09
1.05005e-09
-4.66741e-11
-8.12391e-10
-1.09517e-09
-9.62617e-10
-6.13903e-10
-2.49001e-10
1.15874e-11
1.37773e-10
1.58537e-10
1.22551e-10
7.12148e-11
2.84429e-11
2.19718e-12
-9.23283e-12
-1.11598e-11
-8.69517e-12
-5.23665e-12
-2.42109e-12
-6.81558e-13
1.45579e-13
3.97129e-13
3.69263e-13
2.51875e-13
1.38485e-13
6.0113e-14
1.67223e-14
-2.24847e-15
-7.64451e-15
-7.08544e-15
-4.81177e-15
-2.68343e-15
-1.23774e-15
-4.34004e-16
-6.53103e-17
6.27165e-17
8.11683e-17
6.20712e-17
3.79078e-17
1.96226e-17
8.55815e-18
2.88866e-18
4.49233e-19
-3.53848e-19
-4.63452e-19
-3.51233e-19
-2.13725e-19
-1.1174e-19
-5.05871e-20
-1.90505e-20
-5.00127e-21
1.62834e-22
1.41362e-21
1.37319e-21
1.00013
1
0.997981
0.997159
1.00648
1.02865
1.04519
1.0185
0.915024
0.731153
0.5
0.274394
0.0999444
-0.00347339
-0.0432147
-0.0423674
-0.025367
-0.00872811
0.000913719
0.00384278
0.00306586
0.00135109
0.000126998
-0.000336704
-0.000316604
-0.000147094
-1.60179e-05
3.41029e-05
3.16254e-05
1.3664e-05
5.2903e-07
-3.87251e-06
-3.0806e-06
-1.096e-06
1.47161e-07
4.54e-07
2.92094e-07
7.42756e-08
-3.84818e-08
-5.57503e-08
-3.43041e-08
-1.26099e-08
-1.51414e-09
2.20582e-09
3.41719e-09
4.15619e-09
4.35809e-09
3.65614e-09
2.2297e-09
6.65416e-10
-4.95516e-10
-1.03063e-09
-1.02895e-09
-7.3131e-10
-3.70841e-10
-8.98377e-11
6.69678e-11
1.18355e-10
1.06716e-10
7.10031e-11
3.57321e-11
1.11648e-11
-1.76199e-12
-6.24734e-12
-6.13677e-12
-4.31746e-12
-2.40214e-12
-1.01905e-12
-2.36245e-13
1.03273e-13
1.88605e-13
1.61962e-13
1.05632e-13
5.62258e-14
2.3785e-14
6.47476e-15
-8.61316e-16
-2.87506e-15
-2.63619e-15
-1.77886e-15
-9.9165e-16
-4.62229e-16
-1.68717e-16
-3.29834e-17
1.58984e-17
2.50005e-17
2.00092e-17
1.25564e-17
6.68351e-18
3.03955e-18
1.12159e-18
2.6127e-19
-4.91861e-20
-1.16691e-19
-9.86967e-20
-6.36303e-20
-3.49007e-20
-1.66969e-20
-6.9324e-21
-1.5065e-21
1.00003
1.00026
0.999477
0.997178
0.998022
1.01001
1.03255
1.04539
1.01331
0.90717
0.725606
0.5
0.279329
0.106439
0.00115474
-0.041932
-0.0437761
-0.0277924
-0.0107283
-6.2262e-05
0.00374582
0.00339021
0.00170247
0.000325544
-0.000292008
-0.000351728
-0.000194215
-4.3651e-05
2.76079e-05
3.59352e-05
1.9442e-05
3.72026e-06
-3.28723e-06
-3.69588e-06
-1.77618e-06
-1.76408e-07
4.33339e-07
3.89669e-07
1.63305e-07
3.75332e-09
-4.93331e-08
-4.33752e-08
-2.47357e-08
-1.24713e-08
-6.81017e-09
-3.24897e-09
3.69325e-10
3.52855e-09
5.10799e-09
4.80622e-09
3.24705e-09
1.38605e-09
-5.47144e-11
-8.02728e-10
-9.48917e-10
-7.4506e-10
-4.33653e-10
-1.66785e-10
-9.95641e-13
7.0315e-11
7.97685e-11
6.0585e-11
3.54575e-11
1.54359e-11
3.34462e-12
-2.13833e-12
-3.52661e-12
-3.00159e-12
-1.94262e-12
-1.00816e-12
-3.93954e-13
-7.16663e-14
5.63958e-14
8.17761e-14
6.59115e-14
4.14167e-14
2.14658e-14
8.9041e-15
2.40073e-15
-2.89437e-16
-1.01171e-15
-9.24376e-16
-6.22085e-16
-3.47495e-16
-1.63871e-16
-6.20606e-17
-1.45108e-17
3.21911e-18
7.17636e-18
6.08999e-18
3.94091e-18
2.15697e-18
1.01815e-18
4.02425e-19
1.15785e-19
4.75107e-21
-2.57463e-20
-2.57408e-20
-1.78073e-20
-9.48993e-21
0.999982
1.00016
1.00019
0.998814
0.996675
0.999337
1.01347
1.03578
1.04504
1.0083
0.900056
0.720671
0.5
0.283765
0.112406
0.00559006
-0.0404869
-0.0448875
-0.0300111
-0.0126941
-0.0011218
0.00354557
0.00365566
0.00204819
0.000547226
-0.000222631
-0.000374149
-0.000240369
-7.57445e-05
1.6767e-05
3.82346e-05
2.51887e-05
7.65347e-06
-2.07211e-06
-4.07078e-06
-2.49774e-06
-6.28662e-07
3.17715e-07
4.54709e-07
2.62262e-07
7.14123e-08
-1.82414e-08
-3.41697e-08
-2.55698e-08
-1.8419e-08
-1.60863e-08
-1.39384e-08
-9.23018e-09
-2.95901e-09
2.39852e-09
5.19705e-09
5.36341e-09
3.88522e-09
1.95537e-09
3.96735e-10
-4.8436e-10
-7.60715e-10
-6.66638e-10
-4.31885e-10
-2.05726e-10
-5.12795e-11
2.68102e-11
5.03134e-11
4.49692e-11
2.99137e-11
1.55973e-11
5.79976e-12
5.70351e-13
-1.45557e-12
-1.74057e-12
-1.33113e-12
-8.03441e-13
-3.91991e-13
-1.41514e-13
-1.85473e-14
2.63462e-14
3.2789e-14
2.51118e-14
1.53008e-14
7.76154e-15
3.17488e-15
8.57498e-16
-8.41596e-17
-3.3474e-16
-3.07021e-16
-2.06798e-16
-1.16006e-16
-5.5398e-17
-2.17048e-17
-5.78971e-18
3.43146e-19
1.91142e-18
1.75345e-18
1.1758e-18
6.62256e-19
3.23464e-19
1.35168e-19
4.44351e-20
7.58305e-21
-7.02988e-21
0.999983
1.00003
1.00026
0.999957
0.998132
0.996485
1.00096
1.01677
1.03844
1.04428
1.00347
0.893561
0.716235
0.5
0.287787
0.11792
0.00983944
-0.0389223
-0.0457452
-0.0320359
-0.0146108
-0.00224409
0.00325288
0.00386074
0.00238115
0.000786327
-0.00013018
-0.00038252
-0.000283583
-0.00011117
1.68472e-06
3.81193e-05
3.0513e-05
1.21703e-05
-1.93725e-07
-4.10866e-06
-3.1936e-06
-1.19756e-06
8.11587e-08
4.49619e-07
3.39729e-07
1.4596e-07
3.16582e-08
-2.89544e-09
-5.40176e-09
-7.42969e-09
-1.46436e-08
-2.07422e-08
-2.05859e-08
-1.44659e-08
-6.08023e-09
8.70883e-10
4.59428e-09
5.25321e-09
4.04812e-09
2.26578e-09
7.54557e-10
-1.6168e-10
-5.24267e-10
-5.29882e-10
-3.78977e-10
-2.0721e-10
-7.8161e-11
-4.74888e-12
2.49326e-11
2.89377e-11
2.20429e-11
1.31419e-11
6.14193e-12
1.89303e-12
-1.29643e-13
-7.81636e-13
-7.72344e-13
-5.43182e-13
-3.08992e-13
-1.42671e-13
-4.77077e-14
-3.76675e-15
1.10025e-14
1.22806e-14
9.02356e-15
5.36071e-15
2.67359e-15
1.084e-15
2.96209e-16
-2.00778e-17
-1.04521e-16
-9.69896e-17
-6.56127e-17
-3.70372e-17
-1.79242e-17
-7.24652e-18
-2.13981e-18
-1.09989e-19
4.67218e-19
4.77833e-19
3.34272e-19
1.94024e-19
9.84938e-20
3.51818e-20
0.999994
0.999978
1.00012
1.0003
0.999599
0.997507
0.996583
1.00278
1.01986
1.04061
1.04321
0.998845
0.887594
0.712213
0.5
0.291459
0.123039
0.0139117
-0.0372711
-0.0463857
-0.0338802
-0.0164687
-0.00341188
0.00287833
0.00400571
0.00269582
0.00103756
-1.67167e-05
-0.000376095
-0.000322171
-0.000148752
-1.73634e-05
3.53049e-05
3.5047e-05
1.70815e-05
2.35442e-06
-3.70933e-06
-3.76829e-06
-1.8371e-06
-2.78884e-07
3.43201e-07
3.55379e-07
1.905e-07
7.32789e-08
3.55237e-08
3.2553e-08
2.6336e-08
8.40537e-09
-1.18569e-08
-2.40811e-08
-2.5047e-08
-1.80207e-08
-8.51157e-09
-7.65377e-10
3.49591e-09
4.59225e-09
3.77308e-09
2.29181e-09
9.58911e-10
9.82135e-11
-2.96406e-10
-3.74411e-10
-2.97824e-10
-1.8144e-10
-8.38687e-11
-2.25278e-11
6.86958e-12
1.56478e-11
1.42714e-11
9.64189e-12
5.22656e-12
2.19042e-12
5.25526e-13
-1.827e-13
-3.61963e-13
-3.13951e-13
-2.06335e-13
-1.11559e-13
-4.90348e-14
-1.52284e-14
-3.92118e-16
4.20701e-15
4.33096e-15
3.07703e-15
1.79078e-15
8.81652e-16
3.55919e-16
9.9197e-17
-3.16824e-18
-3.08765e-17
-2.92399e-17
-1.99358e-17
-1.13456e-17
-5.56795e-18
-2.31754e-18
-7.42151e-19
-9.74672e-20
1.02302e-19
1.22559e-19
8.98405e-20
1
0.999978
1.00001
1.00021
1.00025
0.999162
0.996984
0.996931
1.00472
1.02272
1.04237
1.04193
0.99441
0.88208
0.708541
0.5
0.294834
0.127814
0.0178165
-0.035558
-0.0468395
-0.0355575
-0.0182615
-0.00461091
0.00243195
0.00409206
0.00298801
0.00129614
0.000115432
-0.000354622
-0.000354745
-0.000187335
-3.99823e-05
2.96067e-05
3.84409e-05
2.21605e-05
5.53917e-06
-2.78007e-06
-4.09783e-06
-2.45246e-06
-7.1535e-07
1.407e-07
2.86268e-07
1.67222e-07
6.52077e-08
4.50789e-08
6.36535e-08
7.16745e-08
5.35825e-08
2.07883e-08
-8.8577e-09
-2.48266e-08
-2.65593e-08
-1.94734e-08
-9.92507e-09
-2.18258e-09
2.20445e-09
3.60847e-09
3.19215e-09
2.08173e-09
1.00322e-09
2.62909e-10
-1.14786e-10
-2.3218e-10
-2.10965e-10
-1.4194e-10
-7.50396e-11
-2.87006e-11
-3.62007e-12
6.35727e-12
8.0081e-12
6.25071e-12
3.83429e-12
1.90688e-12
7.13039e-13
1.15103e-13
-1.11141e-13
-1.50437e-13
-1.18512e-13
-7.36502e-14
-3.8112e-14
-1.60329e-14
-4.63987e-15
1.29021e-16
1.49537e-15
1.44765e-15
1.00088e-15
5.72982e-16
2.79457e-16
1.12767e-16
3.22522e-17
2.23251e-19
-8.6397e-18
-8.43498e-18
-5.81712e-18
-3.34385e-18
-1.66508e-18
-7.11768e-19
-2.47352e-19
-1.28824e-20
1
0.999992
0.999971
1.00006
1.00029
1.00011
0.998686
0.996583
0.997489
1.00671
1.02537
1.04378
1.04049
0.990161
0.876961
0.705166
0.5
0.297951
0.132283
0.0215636
-0.0338022
-0.0471324
-0.0370806
-0.0199854
-0.00582946
0.00192307
0.00412207
0.0032547
0.00155786
0.000263822
-0.000318241
-0.000380199
-0.000225816
-6.5696e-05
2.09183e-05
4.0348e-05
2.71191e-05
9.24986e-06
-1.27761e-06
-4.06184e-06
-2.91225e-06
-1.12199e-06
-8.97914e-08
1.6129e-07
7.08803e-08
-2.2461e-08
-1.63519e-08
4.61165e-08
9.65193e-08
1.02764e-07
7.22371e-08
2.93168e-08
-5.27268e-09
-2.28864e-08
-2.52709e-08
-1.89255e-08
-1.02361e-08
-3.14482e-09
1.00278e-09
2.54529e-09
2.47118e-09
1.72517e-09
9.21114e-10
3.33049e-10
6.22466e-12
-1.21276e-10
-1.34407e-10
-1.00483e-10
-5.91095e-11
-2.7206e-11
-8.09009e-12
8.86601e-13
3.69723e-12
3.56892e-12
2.48653e-12
1.40589e-12
6.44972e-13
2.12738e-13
1.37487e-14
-5.24285e-14
-5.74096e-14
-4.19777e-14
-2.48934e-14
-1.24028e-14
-5.0192e-15
-1.35961e-15
1.09135e-16
4.99319e-16
4.61095e-16
3.11906e-16
1.76271e-16
8.54311e-17
3.45725e-17
1.01895e-17
4.756e-19
-2.28906e-18
-2.33314e-18
-1.63376e-18
-9.54377e-19
-4.19389e-19
1
1
0.99998
0.999981
1.00013
1.00033
0.999903
0.998204
0.996314
0.998219
1.00873
1.02779
1.04489
1.03892
0.986088
0.872186
0.702049
0.5
0.300845
0.136483
0.0251626
-0.0320184
-0.0472861
-0.0384617
-0.0216386
-0.00705794
0.00136019
0.00409856
0.00349378
0.00181904
0.000426003
-0.00026738
-0.000397666
-0.000263147
-9.39503e-05
9.2181e-06
4.04294e-05
3.15905e-05
1.32531e-05
7.25121e-07
-3.61473e-06
-3.10633e-06
-1.36622e-06
-2.22457e-07
7.90627e-08
-3.94708e-08
-1.72733e-07
-1.66282e-07
-5.78176e-08
5.83647e-08
1.20553e-07
1.20031e-07
8.10979e-08
3.39933e-08
-1.42763e-09
-1.90042e-08
-2.19439e-08
-1.68599e-08
-9.59442e-09
-3.56878e-09
7.45952e-11
1.59062e-09
1.75631e-09
1.31685e-09
7.64173e-10
3.30416e-10
7.07044e-11
-4.64182e-11
-7.59186e-11
-6.46378e-11
-4.19731e-11
-2.19285e-11
-8.68874e-12
-1.68281e-12
1.14714e-12
1.74632e-12
1.43212e-12
9.12714e-13
4.8057e-13
2.03956e-13
5.81532e-14
-3.73679e-15
-2.14354e-14
-2.0419e-14
-1.40669e-14
-8.01821e-15
-3.86661e-15
-1.51276e-15
-3.85899e-16
4.99552e-17
1.57841e-16
1.40577e-16
9.34667e-17
5.23091e-17
2.52604e-17
1.02797e-17
3.13005e-18
2.66986e-19
-5.63894e-19
-6.60134e-19
1
1
0.999995
0.99997
1.00001
1.0002
1.00032
0.999638
0.997741
0.996174
0.999086
1.01073
1.03001
1.04575
1.03727
0.982184
0.867717
0.699155
0.5
0.303542
0.14044
0.0286225
-0.0302183
-0.0473191
-0.0397121
-0.0232206
-0.00828852
0.000751036
0.00402469
0.00370389
0.00207652
0.000599586
-0.00020267
-0.000406467
-0.000298297
-0.000124068
-5.36866e-06
3.84181e-05
3.51698e-05
1.71882e-05
2.9881e-06
-2.86874e-06
-3.03903e-06
-1.37122e-06
-1.30035e-07
1.82875e-07
-3.73552e-08
-2.99082e-07
-3.66175e-07
-2.51121e-07
-7.19065e-08
6.86847e-08
1.29827e-07
1.22847e-07
8.10898e-08
3.51482e-08
2.05932e-09
-1.42533e-08
-1.75707e-08
-1.39271e-08
-8.29929e-09
-3.51159e-09
-5.15046e-10
8.47439e-10
1.14431e-09
9.30911e-10
5.82035e-10
2.84084e-10
9.27225e-11
-3.23185e-12
-3.64825e-11
-3.76239e-11
-2.71525e-11
-1.57316e-11
-7.33674e-12
-2.42436e-12
-1.11791e-13
6.68245e-13
7.22323e-13
5.28175e-13
3.12833e-13
1.5452e-13
6.07141e-14
1.44628e-14
-3.64966e-15
-7.93679e-15
-6.84122e-15
-4.48935e-15
-2.47447e-15
-1.16033e-15
-4.4105e-16
-1.068e-16
1.84269e-17
4.75152e-17
4.11781e-17
2.7018e-17
1.50155e-17
7.2388e-18
3.00257e-18
6.08277e-19
1
1
1
0.999986
0.999968
1.00005
1.00027
1.00027
0.999331
0.997313
0.996157
1.00006
1.01269
1.03204
1.04639
1.03556
0.978436
0.863517
0.696458
0.5
0.306067
0.144179
0.0319521
-0.0284107
-0.0472471
-0.0408424
-0.0247318
-0.00951481
0.000102552
0.00390374
0.00388426
0.00232761
0.000782264
-0.000124908
-0.000406076
-0.00033022
-0.000155186
-2.24587e-05
3.4259e-05
3.75457e-05
2.0657e-05
5.13196e-06
-2.1286e-06
-2.9098e-06
-1.21754e-06
2.18459e-07
5.85329e-07
2.27023e-07
-2.58831e-07
-5.11397e-07
-4.78814e-07
-2.83552e-07
-7.12036e-08
7.10043e-08
1.24707e-07
1.13996e-07
7.43931e-08
3.34164e-08
4.65839e-09
-9.60863e-09
-1.30535e-08
-1.07482e-08
-6.6911e-09
-3.11519e-09
-7.94936e-10
3.40043e-10
6.77876e-10
6.10798e-10
4.10823e-10
2.20155e-10
8.86318e-11
1.67612e-11
-1.30377e-11
-1.94853e-11
-1.60361e-11
-1.02472e-11
-5.37261e-12
-2.22857e-12
-5.70812e-13
1.21629e-13
3.03365e-13
2.70986e-13
1.81582e-13
1.0106e-13
4.70814e-14
1.71102e-14
3.20777e-15
-1.80703e-15
-2.72353e-15
-2.17655e-15
-1.37198e-15
-7.34967e-16
-3.36553e-16
-1.24897e-16
-2.89954e-17
5.98471e-18
1.36842e-17
1.16258e-17
7.57681e-18
3.76092e-18
1
1
1
0.999999
0.999976
0.999976
1.0001
1.00032
1.00018
0.998997
0.996934
0.996254
1.00112
1.01461
1.03388
1.04684
1.0338
0.974837
0.85956
0.693933
0.5
0.308436
0.147722
0.0351593
-0.0266028
-0.0470838
-0.0418621
-0.0261733
-0.0107317
-0.000579033
0.00373904
0.00403458
0.00256995
0.000971752
-3.51056e-05
-0.000396187
-0.000357905
-0.000186246
-4.13211e-05
2.82761e-05
3.87098e-05
2.34256e-05
6.78891e-06
-1.8149e-06
-3.11277e-06
-1.20296e-06
6.63833e-07
1.26807e-06
8.42021e-07
8.98188e-08
-4.58298e-07
-6.30384e-07
-5.12757e-07
-2.77967e-07
-6.4367e-08
6.49867e-08
1.0921e-07
9.77658e-08
6.36313e-08
2.96507e-08
6.12802e-09
-5.71433e-09
-9.02405e-09
-7.78875e-09
-5.06268e-09
-2.54324e-09
-8.44829e-10
3.96683e-11
3.57424e-10
3.71452e-10
2.70159e-10
1.56814e-10
7.22171e-11
2.23301e-11
-1.04126e-12
-8.57397e-12
-8.58994e-12
-6.10976e-12
-3.53797e-12
-1.68982e-12
-6.15035e-13
-1.00357e-13
8.78327e-14
1.19599e-13
9.41105e-14
5.88042e-14
3.10042e-14
1.36796e-14
4.58639e-15
6.01457e-16
-7.17814e-16
-8.78565e-16
-6.61719e-16
-4.03341e-16
-2.10915e-16
-9.46818e-17
-3.44727e-17
-7.75096e-18
1.68229e-18
4.32634e-18
1
1
1
1
0.999993
0.999969
0.999995
1.00016
1.00035
1.00004
0.998649
0.99661
0.996454
1.00224
1.01647
1.03556
1.04713
1.03202
0.971377
0.855821
0.691564
0.5
0.310668
0.151087
0.0382517
-0.0248001
-0.0468407
-0.0427801
-0.0275468
-0.0119349
-0.00128814
0.00353393
0.00415487
0.00280145
0.00116569
6.53663e-05
-0.000376907
-0.000380583
-0.000216152
-6.09246e-05
2.12535e-05
3.91469e-05
2.56756e-05
7.85759e-06
-2.25662e-06
-4.10739e-06
-1.79809e-06
8.296e-07
2.00891e-06
1.7447e-06
8.0486e-07
-8.5592e-08
-5.74932e-07
-6.54575e-07
-4.86841e-07
-2.49306e-07
-5.59325e-08
5.34066e-08
8.84521e-08
7.8426e-08
5.12446e-08
2.4769e-08
6.52717e-09
-2.84237e-09
-5.80355e-09
-5.317e-09
-3.61286e-09
-1.93489e-09
-7.55927e-10
-1.06744e-10
1.58723e-10
2.0803e-10
1.65868e-10
1.03779e-10
5.28168e-11
2.0474e-11
3.8245e-12
-2.74737e-12
-4.0868e-12
-3.33379e-12
-2.1283e-12
-1.1318e-12
-4.93044e-13
-1.53029e-13
-4.91985e-15
4.11071e-14
4.27609e-14
3.06674e-14
1.80846e-14
9.08983e-15
3.81069e-15
1.17395e-15
7.87959e-17
-2.52112e-16
-2.69021e-16
-1.9322e-16
-1.14507e-16
-5.865e-17
-2.61669e-17
-6.68209e-18
1
1
1
1
1
0.999985
0.999966
1.00002
1.00022
1.00036
0.999873
0.998298
0.996344
0.996747
1.00341
1.01826
1.03708
1.04729
1.03022
0.968048
0.852278
0.689332
0.5
0.312776
0.154289
0.0412361
-0.0230069
-0.0465279
-0.0436045
-0.0288542
-0.0131211
-0.0020197
0.00329172
0.00424548
0.00302023
0.00136157
0.000174617
-0.000349035
-0.000398093
-0.00024414
-8.02266e-05
1.42944e-05
3.98616e-05
2.81742e-05
8.76101e-06
-3.41069e-06
-6.1737e-06
-3.4751e-06
2.07048e-07
2.39013e-06
2.67584e-06
1.79e-06
6.33727e-07
-2.1886e-07
-5.9994e-07
-6.06681e-07
-4.24469e-07
-2.09717e-07
-4.76434e-08
3.97844e-08
6.68953e-08
5.93203e-08
3.91141e-08
1.95947e-08
6.11404e-09
-9.73404e-10
-3.45661e-09
-3.42482e-09
-2.44043e-09
-1.3833e-09
-6.05439e-10
-1.54443e-10
4.87938e-11
1.05625e-10
9.4968e-11
6.41886e-11
3.54993e-11
1.58314e-11
4.85963e-12
-7.93891e-14
-1.6312e-12
-1.64842e-12
-1.17571e-12
-6.88051e-13
-3.38612e-13
-1.34029e-13
-3.35034e-14
6.16837e-15
1.60301e-14
1.41872e-14
9.46871e-15
5.31631e-15
2.56029e-15
1.0226e-15
2.87903e-16
-2.03964e-18
-8.13847e-17
-7.87508e-17
-5.45571e-17
-2.86639e-17
1
1
1
1
1
0.999999
0.999977
0.999969
1.00006
1.00027
1.00034
0.999674
0.997952
0.996139
0.997122
1.00461
1.01999
1.03846
1.04732
1.02841
0.964841
0.848913
0.687224
0.5
0.314771
0.157342
0.0441189
-0.0212266
-0.0461541
-0.0443428
-0.0300978
-0.0142875
-0.002769
0.00301594
0.00430727
0.00322485
0.00155687
0.00029022
-0.00031428
-0.00041129
-0.000270307
-9.87063e-05
8.38757e-06
4.21178e-05
3.22111e-05
1.05572e-05
-4.63507e-06
-9.13952e-06
-6.45312e-06
-1.65199e-06
1.9114e-06
3.21786e-06
2.77728e-06
1.58463e-06
4.38372e-07
-2.84128e-07
-5.5384e-07
-5.16672e-07
-3.46398e-07
-1.67711e-07
-3.98942e-08
2.69431e-08
4.75483e-08
4.25478e-08
2.84307e-08
1.47452e-08
5.21669e-09
7.87936e-11
-1.88472e-09
-2.08133e-09
-1.56416e-09
-9.34741e-10
-4.4622e-10
-1.48545e-10
-3.55189e-12
4.68434e-11
5.042e-11
3.71924e-11
2.21991e-11
1.09662e-11
4.21143e-12
8.56213e-13
-4.43388e-13
-7.18403e-13
-5.94498e-13
-3.83972e-13
-2.08667e-13
-9.54097e-14
-3.39894e-14
-6.01432e-15
3.88436e-15
5.59322e-15
4.43078e-15
2.79057e-15
1.50192e-15
6.95986e-16
2.65483e-16
6.77647e-17
-5.74321e-18
-2.89584e-17
1
1
1
1
1
1
0.999994
0.99997
0.999978
1.0001
1.00032
1.00029
0.999453
0.997619
0.995994
0.997568
1.00583
1.02164
1.03971
1.04725
1.0266
0.961748
0.845711
0.685229
0.5
0.316664
0.160259
0.0469063
-0.0194619
-0.0457271
-0.0450019
-0.0312798
-0.0154318
-0.0035315
0.00271055
0.00434199
0.00341474
0.00174954
0.000409552
-0.000275166
-0.000422245
-0.000296073
-0.000116992
3.75133e-06
4.68792e-05
3.92205e-05
1.47755e-05
-4.65797e-06
-1.22112e-05
-1.04618e-05
-4.89782e-06
1.81365e-07
2.91878e-06
3.38386e-06
2.51475e-06
1.27758e-06
2.74578e-07
-2.89024e-07
-4.66682e-07
-4.1126e-07
-2.67699e-07
-1.28511e-07
-3.26852e-08
1.64931e-08
3.18962e-08
2.90575e-08
1.97498e-08
1.05921e-08
4.13236e-09
5.55655e-10
-9.1601e-10
-1.19062e-09
-9.52489e-10
-5.99462e-10
-3.07251e-10
-1.20067e-10
-2.26852e-11
1.62803e-11
2.4489e-11
2.01671e-11
1.29995e-11
6.98477e-12
3.07962e-12
9.73539e-13
4.18368e-14
-2.55212e-13
-2.7114e-13
-1.97077e-13
-1.17621e-13
-5.98503e-14
-2.54526e-14
-8.02076e-15
-6.54131e-16
1.63819e-15
1.80269e-15
1.31542e-15
7.89645e-16
4.09454e-16
1.85139e-16
4.84543e-17
1
1
1
1
1
1
1
0.999988
0.999965
0.999994
1.00015
1.00035
1.00022
0.999214
0.997304
0.995908
0.998077
1.00706
1.02322
1.04084
1.04708
1.0248
0.958764
0.842658
0.683335
0.5
0.318465
0.16305
0.0496036
-0.0177149
-0.0452537
-0.0455884
-0.0324031
-0.0165522
-0.00430272
0.00238018
0.00435271
0.00359091
0.00193878
0.0005306
-0.000234429
-0.000433979
-0.000324293
-0.000137301
-8.16847e-07