/*--------------------------------*- C++ -*----------------------------------*\
  =========                 |
  \\      /  F ield         | OpenFOAM: The Open Source CFD Toolbox
   \\    /   O peration     | Website:  https://openfoam.org
    \\  /    A nd           | Version:  7
     \\/     M anipulation  |
\*---------------------------------------------------------------------------*/
FoamFile
{
    version     2.0;
    format      ascii;
    class       volScalarField;
    location    "1";
    object      T;
}
// * * * * * * * * * * * * * * * * * * * * * * * * * * * * * * * * * * * * * //

dimensions      [0 0 0 1 0 0 0];

internalField   nonuniform List<scalar> 
45544
(
-1.46038e-45
-1.90555e-44
1.25843e-44
-3.5799e-42
9.63995e-42
-6.34396e-42
1.753e-40
-5.84646e-40
5.10078e-40
-2.51116e-39
-1.84392e-38
-2.83152e-38
-1.24695e-37
-8.7116e-38
3.35611e-37
1.01282e-36
6.20789e-36
6.77582e-36
1.75027e-35
-1.5299e-36
-4.73925e-35
-1.37867e-34
-4.876e-34
-4.97019e-34
-1.60875e-33
-3.96152e-34
-2.16398e-33
3.21929e-33
7.63422e-33
1.8152e-32
5.54596e-32
4.82644e-32
1.55316e-31
8.35218e-32
4.12639e-31
1.6336e-31
1.08987e-30
1.70998e-31
2.23716e-30
6.58206e-32
3.61866e-30
-4.54356e-31
4.80592e-30
-1.15792e-30
5.05152e-30
-1.33445e-30
4.82269e-30
-9.75265e-31
4.51179e-30
-5.89894e-31
4.41223e-30
-6.31406e-31
4.59657e-30
-6.48194e-31
5.45614e-30
-5.59581e-31
6.13918e-30
-1.48866e-30
2.88273e-30
-3.87558e-30
-6.69781e-30
-4.07096e-30
-5.77905e-30
7.37743e-30
3.65592e-29
3.24018e-29
9.70326e-29
5.39663e-29
1.54669e-28
7.13848e-29
1.49688e-28
8.87213e-29
1.07076e-28
8.22191e-29
5.58015e-29
5.11898e-29
2.9618e-29
1.49474e-29
1.52388e-29
-1.65069e-30
5.12669e-30
-1.82039e-30
7.84636e-31
1.38974e-31
-2.64361e-31
4.91456e-31
-5.11717e-32
-4.88095e-32
1.47435e-32
-3.93765e-32
1.07654e-33
9.47376e-33
-8.72899e-34
2.5006e-33
9.29835e-35
-7.80902e-34
-4.21677e-36
7.36414e-35
3.86411e-38
-2.70534e-36
1.51922e-39
4.27886e-39
-9.99895e-42
1.75065e-39
4.10685e-46
-1.05827e-41
0
1.23712e-45
0
0
0
0
0
0
0
0
0
0
0
0
0
0
0
0
0
0
0
0
0
0
0
0
0
0
0
0
0
0
0
0
0
0
0
0
0
0
0
0
0
0
0
0
0
0
0
0
0
0
0
0
0
0
0
0
0
0
0
0
0
0
0
0
0
0
0
0
0
0
0
0
0
0
0
0
0
0
0
0
0
0
0
0
0
0
0
0
0
0
0
-1.298e-41
-1.47124e-36
-2.21931e-34
3.79025e-30
5.66163e-28
1.34683e-28
-4.21867e-26
-1.17402e-25
-3.77804e-25
-2.03894e-24
-1.92835e-24
-3.36377e-24
-2.3883e-24
1.43129e-24
-8.20538e-25
-5.11649e-24
-4.43921e-24
-7.4202e-24
-2.55745e-23
-1.39054e-23
1.47157e-22
-1.23192e-22
-1.72776e-21
-2.98365e-21
-2.54327e-21
-3.22786e-21
6.19324e-21
-1.91531e-20
-2.73461e-20
-2.42915e-20
-2.11516e-20
-1.31155e-20
-1.0918e-20
-8.10666e-21
-7.2141e-22
-3.27646e-20
-4.38628e-20
-6.65709e-20
-3.01326e-20
-1.4828e-19
-1.19017e-19
-4.65656e-20
-9.19938e-20
4.97792e-20
3.35689e-19
2.18682e-19
-4.02828e-19
-2.2628e-19
-6.34823e-19
-1.23565e-18
-2.03041e-19
-2.53804e-18
-3.18629e-18
-1.88335e-18
-2.03079e-18
7.03511e-19
7.45307e-18
1.12636e-17
2.43456e-17
3.17112e-17
2.68201e-17
1.97387e-17
3.12547e-18
-1.11903e-17
-2.41874e-17
-2.49924e-17
-3.97668e-17
-4.49833e-17
-3.00433e-17
-2.42655e-17
-1.05449e-17
-3.87638e-18
7.24638e-18
1.07821e-17
1.80095e-17
1.93961e-17
1.41099e-17
1.12544e-17
8.28626e-18
4.70968e-18
1.76972e-18
-4.10412e-19
-2.30921e-18
-2.56518e-18
-2.51424e-18
-2.62357e-18
-1.84186e-18
-1.67515e-18
-1.29442e-18
-6.24443e-19
-2.888e-19
-8.04235e-20
8.96854e-20
1.60828e-19
2.39296e-19
2.29804e-19
1.96498e-19
1.28255e-19
3.10863e-18
6.88081e-16
0
0
0
0
0
0
0
0
0
0
0
0
0
0
0
0
0
0
0
0
0
0
0
0
0
0
0
0
5.28865e-125
-2.73186e-130
-8.72758e-110
4.85574e-117
7.32125e-106
2.21105e-106
-2.51153e-103
-2.73121e-103
4.08072e-102
5.77492e-102
3.95713e-100
9.1498e-102
-6.95266e-98
-6.0566e-98
2.57598e-96
5.57757e-96
1.27711e-96
4.78743e-98
1.66994e-93
2.74742e-93
5.09679e-92
-7.06371e-92
7.75664e-91
-4.16662e-91
1.92632e-90
2.90906e-90
-5.76933e-90
7.66279e-89
3.0446e-88
2.09243e-87
-7.66039e-88
9.28618e-88
-2.27214e-87
7.35206e-87
2.31612e-87
-1.36845e-86
6.11222e-86
-1.10949e-85
4.42836e-85
-3.22364e-85
3.68606e-84
-2.72887e-84
6.13949e-84
1.1715e-83
1.33185e-84
2.09234e-83
-1.03099e-83
3.32561e-83
-2.30043e-83
5.35234e-83
-2.82801e-83
2.42132e-83
-3.58729e-83
3.32773e-83
-6.5878e-83
6.13157e-83
-3.42707e-84
-1.456e-82
2.42955e-82
-4.16335e-82
-8.08087e-82
-7.99855e-81
2.47564e-80
8.31477e-81
2.33226e-79
-2.21204e-79
9.30571e-78
-6.38467e-78
2.50624e-76
2.4557e-76
2.30059e-76
3.32794e-76
-2.41973e-76
1.05085e-75
-1.09234e-75
3.70661e-75
-5.3209e-75
1.39178e-76
2.35017e-75
-3.67197e-74
4.58395e-74
-9.35559e-74
2.3153e-74
-6.63753e-74
1.40968e-74
-7.2882e-73
1.32345e-72
-1.39728e-72
1.46104e-72
3.62829e-72
1.65812e-71
2.41871e-71
-1.11407e-71
9.81645e-71
-4.62358e-71
1.11108e-70
-4.38846e-71
7.86944e-71
-1.93616e-70
2.25799e-70
5.73311e-71
-6.604e-70
2.66901e-70
-1.77314e-69
1.06188e-69
-3.6895e-69
1.62553e-69
-4.3371e-69
1.22516e-69
-3.57973e-69
3.51483e-69
-7.75422e-69
3.9832e-69
-2.57981e-69
2.5489e-69
4.4811e-69
1.35833e-69
2.63989e-69
-7.5197e-69
1.03753e-68
-2.82873e-68
-2.08767e-69
-5.55132e-70
-9.01442e-68
2.9928e-68
-7.38171e-68
3.43247e-68
-2.21732e-67
1.06271e-67
-2.94252e-67
1.62802e-67
-2.39468e-67
6.25713e-68
-3.15901e-67
8.43488e-68
-3.29081e-67
1.34687e-67
-2.53393e-67
1.30266e-67
-3.92548e-67
1.60929e-67
-7.64659e-67
3.37891e-67
-1.06394e-66
6.88034e-67
-7.82782e-67
6.6203e-67
-8.35459e-67
1.0488e-66
-1.52787e-66
1.0244e-66
-4.6832e-67
8.26477e-67
-1.64417e-66
3.94985e-67
6.34013e-67
8.21969e-67
1.76053e-67
6.32587e-67
4.34011e-66
2.05438e-66
7.24126e-66
-7.74159e-68
9.64003e-66
-4.74301e-66
1.27001e-65
-5.64444e-66
4.77267e-66
-3.6061e-66
-6.49035e-67
2.27054e-66
5.20493e-66
-1.79466e-66
9.78771e-67
3.32289e-66
-1.4007e-65
1.09715e-65
1.72332e-65
-5.35977e-66
3.06988e-65
-3.59447e-65
6.46453e-65
-2.86055e-65
7.94662e-65
-6.44085e-65
1.25424e-64
-1.83119e-64
2.79201e-64
-2.1912e-64
3.02084e-64
-2.51971e-64
3.64025e-64
-2.98147e-64
3.85543e-64
-4.53208e-64
3.74722e-64
-5.94291e-64
3.22672e-64
-6.02557e-64
3.99271e-64
-5.84912e-64
2.76531e-64
-5.56441e-64
3.10189e-64
-6.01455e-64
6.0658e-64
-6.25605e-64
3.78021e-64
-5.03043e-64
2.77408e-64
-5.46284e-64
1.86958e-64
-3.29409e-64
-4.85766e-64
-1.95813e-64
-8.45106e-65
-1.15945e-64
2.51576e-64
-1.93786e-64
4.99513e-64
-1.99804e-64
2.42295e-64
-4.09847e-65
5.21706e-64
-2.13932e-64
1.2124e-63
-3.73828e-64
6.64798e-64
-4.9135e-64
1.16052e-63
-6.92698e-64
1.66937e-63
-7.51665e-64
7.2319e-64
-5.32049e-64
3.89372e-64
-6.37664e-64
-8.53871e-64
1.71694e-64
-1.43563e-63
1.12153e-64
1.51832e-63
-1.7786e-64
1.31691e-63
-2.10629e-64
7.60085e-65
-1.47619e-65
1.04647e-63
-1.08175e-64
8.54433e-65
1.27437e-63
-3.3539e-63
1.8509e-63
-2.55907e-63
2.79698e-63
-3.47422e-63
2.67273e-63
-3.80309e-63
3.84569e-63
-4.66799e-63
3.29769e-63
-4.2189e-63
3.2449e-63
-5.6012e-63
4.52099e-63
-4.20174e-63
3.59803e-63
-4.08417e-63
3.87501e-63
-6.86328e-63
3.36228e-63
-5.35479e-63
3.69854e-63
-2.65144e-63
3.8202e-63
-4.00797e-63
3.51519e-63
-1.84827e-63
3.62495e-63
-3.36977e-63
1.55738e-63
-2.77406e-63
2.01041e-63
-3.18761e-63
1.27438e-64
7.95934e-64
-1.81078e-63
-2.14004e-63
-7.52328e-64
-7.13416e-64
-1.35831e-63
2.15958e-63
-2.31501e-63
2.34684e-63
-2.53453e-63
1.94021e-63
-2.60507e-63
2.78731e-63
-3.28855e-63
1.86629e-63
-2.85263e-63
1.68552e-63
-2.79709e-63
1.76615e-63
-2.41801e-63
1.61199e-63
-1.98022e-63
2.01053e-63
-2.15558e-63
1.67312e-63
-1.98265e-63
9.02575e-64
-3.72582e-64
1.38539e-63
-6.41528e-64
1.52194e-63
-4.42567e-64
-3.28338e-64
5.68411e-65
-3.5054e-64
2.67664e-64
1.03795e-64
-3.08394e-63
-1.19959e-65
-1.95884e-60
1.6518e-61
3.57533e-59
5.58362e-59
4.88899e-59
-1.4565e-58
-6.06988e-56
-2.44385e-57
9.31694e-55
9.28514e-55
1.99419e-53
-1.43222e-53
1.59101e-51
-2.54782e-52
-6.63468e-51
-2.00504e-50
2.15825e-49
-1.62341e-50
-9.07196e-48
-2.31774e-48
3.82391e-47
8.61962e-47
-6.53808e-47
-1.92548e-46
4.84777e-46
1.02805e-46
-3.66093e-45
-3.65319e-45
-1.42684e-43
2.38115e-44
1.87274e-42
1.05611e-42
-1.32361e-40
-6.5927e-41
-2.75636e-39
2.08946e-39
4.7014e-38
3.88043e-38
1.65845e-38
-3.51436e-37
1.86642e-37
4.0889e-37
-1.2098e-35
-1.62408e-36
9.64223e-35
-6.82702e-15
2.0724e-14
1.31156e-13
-2.55e-11
4.85577e-10
1.07995e-08
-1.74049e-07
1.22128e-06
2.03748e-05
7.92779e-05
0.000152654
0.000197008
0.000205284
0.000203775
0.000202724
0.000201869
0.000199816
0.000188506
0.00015787
0.000110051
6.14392e-05
2.68918e-05
8.62104e-06
1.91587e-06
1.40478e-07
-6.24497e-08
-2.3417e-08
-2.68035e-09
3.66786e-10
1.09052e-10
-8.63193e-12
-1.58415e-12
3.09747e-13
-1.72221e-14
-1.59014e-15
3.82927e-16
-4.0278e-17
3.17262e-18
-2.23104e-19
1.45477e-20
-9.11184e-22
5.58835e-23
-3.34698e-24
1.64157e-25
-3.94843e-27
-8.82645e-29
1.14219e-29
-3.42121e-31
-2.40556e-33
-1.22802e-13
-5.07308e-14
-1.68574e-13
9.38859e-14
1.33194e-13
-2.27347e-13
-1.16017e-13
4.67242e-14
-1.36858e-13
1.36255e-13
1.10182e-13
1.51393e-13
1.31189e-13
5.71711e-14
1.56546e-13
-1.48602e-13
-6.95943e-14
2.62695e-13
5.13432e-14
-4.54799e-14
4.67254e-14
-3.63449e-13
2.37174e-13
-1.15607e-13
-7.3861e-13
-1.02806e-12
-3.43567e-13
-1.41162e-13
-5.95744e-13
1.11754e-12
6.59309e-13
-1.54417e-13
1.38784e-14
9.90264e-13
1.54048e-12
3.60819e-13
-1.35125e-12
-3.40742e-12
2.52416e-13
-8.47113e-12
1.53749e-11
-7.99454e-13
7.27489e-12
2.52387e-11
-2.81504e-11
-2.30138e-11
7.40864e-12
-1.54787e-11
3.31084e-11
4.75563e-11
-1.77469e-11
-6.20317e-12
-1.67111e-11
-3.79124e-11
2.07865e-11
3.68861e-11
-1.81003e-12
7.65798e-13
-1.33616e-11
-3.07099e-11
1.57254e-11
2.99612e-11
-1.27722e-11
-1.26455e-11
7.25437e-12
-4.4166e-12
-4.17124e-12
1.47163e-11
-2.53789e-12
-1.9935e-11
8.47814e-12
1.26118e-11
-6.79502e-12
3.47666e-12
1.52215e-12
-7.25536e-12
1.55923e-12
3.64029e-12
-1.08379e-14
-1.04609e-13
-9.24093e-14
-2.47027e-13
-8.14021e-14
3.46336e-14
-2.84683e-13
-4.43521e-13
-9.86636e-13
-2.22633e-12
8.77674e-14
-5.27784e-14
4.63824e-14
-3.42137e-14
-4.22685e-14
8.19574e-14
-4.47208e-14
-1.8656e-14
2.5853e-14
8.58038e-15
1.65187e-16
-6.32891e-39
-5.55143e-35
5.56161e-32
1.22346e-28
-1.1102e-27
9.61154e-27
7.4127e-26
2.28196e-25
1.0286e-24
1.54811e-24
3.17016e-24
2.16938e-24
2.19495e-24
-4.4864e-24
-4.49273e-24
-6.057e-24
-9.08331e-24
-8.28797e-24
1.4714e-23
5.72818e-24
-7.92823e-22
1.17652e-21
3.2821e-21
3.63081e-21
2.62272e-21
-3.72203e-21
-2.91393e-21
2.7312e-20
3.7664e-21
6.58685e-21
3.36907e-21
-1.64753e-20
-2.51507e-20
-2.25785e-20
-8.43222e-21
6.94141e-21
2.27552e-20
-1.75523e-20
-3.64017e-20
1.41477e-19
7.53501e-21
4.69955e-20
1.36673e-19
-1.04282e-19
3.5785e-20
2.08012e-19
2.1321e-19
-3.86284e-19
2.94533e-19
-5.69058e-19
-1.84645e-18
-7.92221e-19
-4.71576e-18
-1.74052e-18
-2.93221e-18
8.29897e-18
1.55193e-17
2.37315e-17
2.98675e-17
3.2417e-17
2.56561e-17
1.88472e-17
1.55589e-18
-7.95954e-18
-3.90954e-17
-3.58218e-17
-3.98666e-17
-4.12014e-17
-2.67621e-17
-1.9545e-17
-6.00073e-18
5.7965e-18
1.30957e-17
1.72518e-17
1.77039e-17
1.91874e-17
1.31227e-17
1.05417e-17
6.43871e-18
3.25811e-18
-3.21639e-19
-1.37695e-18
-2.03741e-18
-3.17177e-18
-2.89912e-18
-2.60336e-18
-1.9732e-18
-1.49972e-18
-1.04091e-18
-5.08193e-19
-2.15118e-19
2.08495e-20
1.00311e-19
2.0515e-19
2.18286e-19
1.76249e-19
-4.22883e-20
-6.80448e-19
2.43168e-37
-2.78259e-17
8.65663e-40
-8.5601e-15
2.16847e-14
1.21346e-34
4.13569e-14
3.8518e-14
-2.38571e-13
-1.84611e-10
6.05592e-09
-3.04498e-08
-2.15821e-07
7.01245e-06
4.42124e-05
0.000116691
0.000180189
0.000203595
0.000204834
0.00020311
0.000202195
0.000201424
0.000195856
0.00017606
0.00013496
8.50169e-05
4.21279e-05
1.61078e-05
4.39032e-06
6.79151e-07
-3.49496e-08
-4.48559e-08
-9.55739e-09
-2.02026e-10
2.72062e-10
1.88957e-11
-6.5248e-12
2.68871e-13
7.21637e-14
-1.31783e-14
1.03488e-15
-3.55156e-17
-2.02503e-18
4.76158e-19
-3.89751e-20
2.60724e-21
-1.35307e-22
3.62301e-24
1.47771e-25
-2.74841e-26
1.69527e-27
-5.35646e-29
-2.05991e-31
6.47535e-32
-2.59926e-14
-9.72543e-34
6.94367e-13
-2.16663e-12
1.3078e-12
7.50477e-14
9.58177e-14
2.03329e-13
1.16798e-13
1.34878e-13
-2.67781e-13
2.70836e-13
1.6232e-12
6.57573e-13
5.31344e-14
2.05568e-12
1.01113e-14
2.95292e-15
-2.22176e-14
4.48073e-14
-8.04738e-15
-8.90158e-14
1.12525e-13
-7.86712e-14
4.26287e-14
-1.56452e-14
9.5392e-44
-7.19281e-33
-3.41103e-29
-1.50775e-27
-1.44375e-26
2.95426e-27
2.51525e-25
8.35509e-25
4.90168e-24
8.9789e-24
4.72913e-24
-3.83722e-24
-6.83849e-24
-3.9476e-24
-6.79232e-24
-1.14749e-23
-2.08268e-23
1.58433e-23
5.63285e-23
-2.38669e-23
-1.54437e-21
1.68346e-22
-7.61664e-22
-9.12523e-21
-7.91665e-21
2.6202e-21
4.25528e-20
1.44566e-20
5.10574e-21
-5.80944e-22
-1.49107e-20
-3.15452e-20
-6.76678e-20
-7.31871e-20
-6.60277e-20
-1.56083e-19
-5.09334e-20
-1.9722e-19
-9.35832e-20
-3.964e-19
-4.28635e-19
-2.87255e-19
-1.06423e-19
6.50446e-20
2.09747e-19
1.09096e-18
1.10594e-18
1.33423e-18
1.61282e-18
-1.63152e-18
-4.10665e-18
-8.60914e-18
-1.50774e-17
-2.5266e-17
-3.15494e-17
-3.04228e-17
-2.73042e-17
-1.83168e-17
7.34085e-18
2.23029e-17
5.94175e-17
7.0269e-17
7.56372e-17
4.05268e-17
4.09598e-17
2.77126e-17
-1.00914e-17
-1.52546e-17
-3.16511e-17
-3.14309e-17
-2.74706e-17
-2.63692e-17
-2.39501e-17
-1.72651e-17
-2.72706e-18
-2.46992e-18
4.0147e-18
5.77449e-18
6.10645e-18
5.25859e-18
5.82086e-18
4.76362e-18
2.2472e-18
2.06201e-18
7.71366e-19
3.76439e-19
-5.6431e-20
-6.1718e-19
-5.43548e-19
-5.11324e-19
-3.60035e-19
-3.90559e-19
-2.01796e-19
-1.89404e-19
-1.31175e-19
-8.07198e-20
7.05773e-19
4.83231e-18
8.86258e-15
-6.28235e-11
1.81304e-09
7.18374e-09
-2.77328e-07
3.17416e-06
3.30986e-05
0.000108155
0.000185901
0.00022235
0.000226134
0.000224377
0.000223149
0.000222679
0.000218863
0.00020255
0.000162347
0.000107316
5.61688e-05
2.28039e-05
6.65016e-06
1.21931e-06
5.73098e-09
-6.20459e-08
-1.61331e-08
-9.23518e-10
3.9575e-10
5.00982e-11
-1.01234e-11
-2.97911e-14
1.67697e-13
-2.24113e-14
1.17622e-15
1.77674e-17
-1.07326e-17
1.37593e-18
-1.04622e-19
7.0892e-21
-3.73602e-22
1.45828e-23
-1.62991e-25
-3.54469e-26
3.21029e-27
-1.20295e-28
6.72354e-31
1.19538e-31
-3.31334e-33
4.06858e-14
-3.37799e-14
1.61518e-14
-1.22022e-13
-8.38995e-14
-3.893e-13
-8.58519e-13
2.39891e-13
1.72043e-13
7.27916e-13
-2.35819e-14
1.5184e-14
-1.54002e-14
6.06588e-16
-4.04619e-14
6.61877e-14
-3.51066e-14
-3.71238e-15
6.23466e-15
3.63925e-16
5.95914e-34
-7.09048e-31
-6.49733e-28
4.53309e-27
2.61482e-26
-6.3976e-26
-5.46665e-25
-1.69019e-24
-6.92925e-24
-1.08591e-23
-3.68771e-24
-1.97167e-24
-4.3922e-24
-7.9239e-24
-6.36104e-24
-5.5388e-24
-7.45961e-24
-6.8624e-23
-3.12723e-22
1.5345e-21
1.98979e-21
-1.39879e-22
6.44292e-22
1.15715e-21
1.16958e-21
-1.45613e-20
-4.55981e-20
-1.09713e-20
-1.32994e-20
-3.38296e-20
-1.9933e-20
1.61466e-21
-2.90695e-20
-9.52615e-20
-9.4569e-20
-1.08236e-19
-1.73264e-19
-2.4725e-19
-3.61893e-19
-9.92257e-20
-2.21451e-19
-4.45951e-19
1.61155e-19
-6.76862e-20
-9.62693e-20
2.21978e-19
5.67123e-19
-2.43285e-18
-8.77803e-19
-1.7154e-18
-5.69466e-18
-9.78756e-18
-2.10593e-17
-3.26197e-17
-3.67721e-17
-4.00514e-17
-1.66442e-17
3.62414e-18
1.59995e-17
3.94329e-17
5.00697e-17
6.68856e-17
6.02629e-17
5.55996e-17
3.57976e-17
3.68375e-18
-8.37947e-18
-2.50221e-17
-2.66816e-17
-3.84207e-17
-2.80129e-17
-2.8686e-17
-1.68606e-17
-5.42789e-18
-3.80137e-18
1.25386e-18
5.20648e-18
7.1224e-18
6.74801e-18
5.52355e-18
4.50421e-18
3.3088e-18
2.6122e-18
1.0426e-18
9.82175e-19
1.01843e-19
-5.00928e-19
-3.75388e-19
-4.82613e-19
-3.50244e-19
-3.89243e-19
-2.25903e-19
-1.86177e-19
-1.23629e-19
-6.57536e-20
6.8751e-19
1.15115e-18
1.12647e-08
-8.6183e-08
-1.78336e-08
1.30417e-05
6.58814e-05
0.000150066
0.000210716
0.000226103
0.000225871
0.000223344
0.000222834
0.000221375
0.000212639
0.000185553
0.000135577
7.9794e-05
3.71375e-05
1.27348e-05
3.10356e-06
3.30982e-07
-7.20996e-08
-3.62285e-08
-5.41202e-09
3.54966e-10
1.94401e-10
-6.30397e-12
-3.58582e-12
4.7891e-13
-8.05954e-15
-5.00061e-15
8.20956e-16
-7.01665e-17
4.7307e-18
-3.11925e-19
1.98182e-20
-1.31931e-21
9.00718e-23
-6.13393e-24
3.49413e-25
-1.15542e-26
-3.57125e-30
1.98291e-29
-7.61577e-31
6.15626e-34
3.84995e-34
-1.92186e-14
3.52135e-14
5.16985e-14
4.81718e-14
3.43893e-13
2.50309e-13
7.87284e-13
1.88659e-13
-1.34307e-12
5.16423e-13
-3.41763e-14
1.25967e-14
-2.07757e-14
3.48288e-14
-1.60006e-14
-5.33331e-14
5.82377e-14
-3.95286e-14
2.02266e-14
-8.09073e-15
2.68898e-35
1.89372e-14
-2.3771e-10
-3.58586e-12
8.51208e-14
5.41508e-14
1.26986e-42
-1.07488e-31
1.48205e-39
3.4599e-38
-2.34225e-37
9.58879e-38
-3.56222e-36
2.67695e-37
-7.08142e-36
1.74609e-36
-6.18032e-36
-4.91312e-37
-6.94533e-35
-4.09954e-35
-1.95854e-34
-1.04122e-34
5.56826e-34
4.08371e-34
4.45467e-33
2.49444e-33
3.69694e-33
4.65807e-33
-4.47868e-32
-8.44073e-33
-1.54662e-31
-6.33651e-32
-1.67956e-31
-1.50591e-31
3.66457e-31
-2.19704e-31
1.99692e-30
-1.9187e-31
4.24376e-30
6.41661e-31
9.83574e-30
3.34382e-30
1.57104e-29
8.87325e-30
1.23504e-29
1.50825e-29
-9.22108e-30
1.7676e-29
-2.37895e-29
1.576e-29
-1.09297e-29
1.34155e-29
8.43923e-30
1.34589e-29
7.17636e-30
1.40002e-29
-3.82234e-30
1.49729e-29
-4.4947e-30
2.01974e-29
6.73208e-30
2.70078e-29
-3.19515e-29
7.9612e-30
-1.20802e-28
-4.3219e-29
1.45745e-29
-6.89734e-29
3.9667e-28
3.61904e-30
6.42207e-28
1.09576e-28
4.65547e-28
1.22866e-28
5.5867e-28
8.12099e-29
9.20172e-28
9.50468e-29
4.23743e-28
1.30612e-28
-8.1486e-28
1.21934e-28
-1.32289e-27
6.10722e-29
-8.44992e-28
1.51262e-29
-2.5615e-28
-4.85869e-31
7.23546e-30
-6.46011e-31
1.40549e-29
-5.0833e-32
3.12433e-30
-3.08509e-32
9.77015e-31
-7.32303e-33
5.97679e-32
1.95888e-33
-5.91073e-32
-2.18319e-34
9.81144e-33
7.45895e-36
-6.12629e-34
2.06216e-37
5.34859e-37
-3.17284e-38
2.8511e-36
8.05541e-40
-1.54113e-37
-4.35564e-42
3.43628e-39
1.97352e-45
-1.96456e-41
0
1.3877e-44
0
0
0
0
0
0
0
0
0
0
0
0
0
0
0
0
0
0
0
0
0
0
0
0
0
0
0
0
0
0
0
0
0
0
0
0
0
0
0
0
0
0
0
0
0
0
0
0
0
0
0
0
0
0
0
0
0
0
0
0
0
0
0
0
0
0
0
0
0
0
0
0
0
0
0
0
0
0
0
0
0
0
0
0
0
0
0
3.3271e-14
4.24179e-14
9.2783e-14
-1.35313e-13
-3.25293e-28
-9.85314e-28
-6.3866e-26
-6.19774e-25
-1.63606e-24
-3.50633e-24
4.15186e-24
1.3209e-23
-6.56484e-24
-2.61924e-23
-6.77121e-24
-9.70599e-25
2.81176e-25
-8.33644e-24
-3.16666e-23
4.46807e-23
1.80629e-22
1.67918e-21
-5.45078e-21
-1.7317e-20
-1.05643e-20
-3.56966e-20
-9.9873e-21
1.81829e-20
1.7203e-19
5.10855e-20
6.71583e-20
3.58176e-20
-6.7024e-20
-1.04574e-19
-2.48665e-19
-1.26987e-19
-4.90732e-20
-5.01207e-19
2.31357e-19
-5.0575e-19
5.3699e-19
-8.56964e-19
-1.2747e-18
-9.01933e-19
-1.70983e-19
4.64545e-19
8.5807e-19
5.11281e-18
8.76889e-18
1.37979e-17
2.29314e-17
1.65422e-17
1.05936e-17
1.78642e-17
1.17086e-17
-2.69856e-17
-1.06107e-16
-1.77041e-16
-3.20716e-16
-4.24213e-16
-3.64855e-16
-3.22634e-16
-8.06791e-17
8.31605e-17
2.5789e-16
3.20284e-16
5.02507e-16
6.06839e-16
4.22426e-16
3.68332e-16
2.32508e-16
9.57622e-17
-2.05928e-17
-1.30138e-16
-2.35936e-16
-2.70897e-16
-2.0713e-16
-1.97793e-16
-1.30867e-16
-8.97168e-17
-5.58983e-17
-1.4255e-17
1.80405e-17
3.10204e-17
3.20834e-17
4.09019e-17
3.29399e-17
2.94859e-17
2.46916e-17
1.33582e-17
8.72903e-18
3.9761e-18
1.07076e-18
-1.25993e-18
-1.77826e-18
-2.78042e-18
-2.48987e-18
-2.39064e-18
-9.06989e-19
1.90845e-16
1.19364e-08
9.89741e-36
3.43233e-16
1.74427e-38
-6.43245e-37
0
0
0
0
0
0
0
0
0
0
0
0
0
0
0
0
0
0
0
0
0
0
0
0
0
0
5.19161e-122
5.5251e-130
-4.25691e-109
-2.67135e-109
1.55365e-104
7.82294e-106
-8.36472e-102
-7.25219e-102
2.59623e-100
5.27561e-100
2.85446e-98
4.72971e-100
-9.69394e-96
-3.61147e-96
3.59393e-94
6.96584e-94
1.58529e-94
1.44827e-93
4.00357e-91
2.1486e-91
1.49868e-89
4.58766e-90
6.98965e-89
-1.27322e-89
5.93332e-88
-1.72108e-87
-1.02937e-87
3.5217e-87
5.98166e-86
1.17498e-85
-1.28459e-85
5.26613e-85
-1.00068e-84
7.16982e-85
-8.41098e-85
-1.83112e-85
2.71074e-84
-4.65212e-84
3.00861e-83
-3.28024e-83
2.55784e-82
-6.9328e-83
1.72217e-82
2.89884e-82
-2.1352e-83
5.22142e-82
1.40172e-82
1.41422e-81
-3.77336e-82
3.423e-81
-1.05103e-81
3.12215e-81
-2.0837e-81
3.61184e-81
-2.73914e-81
1.27417e-81
-5.57734e-81
7.57176e-81
1.04022e-80
-2.24976e-80
-2.05499e-79
-5.62202e-79
1.75374e-78
-3.46819e-78
1.52077e-77
-6.50732e-77
5.70803e-76
-9.04795e-76
9.50308e-75
6.4523e-75
7.27004e-75
1.91682e-74
7.15135e-74
1.10433e-73
1.39316e-74
3.32035e-73
-2.80391e-73
4.87177e-73
1.122e-73
-1.37985e-72
1.12923e-72
-4.83355e-72
5.06137e-73
-7.16013e-72
-4.06197e-72
-4.23461e-71
1.25861e-71
-1.0235e-70
2.60966e-70
-5.68121e-70
9.51447e-70
2.07556e-69
1.40899e-70
-4.92794e-70
-7.88888e-70
2.35254e-69
-3.38192e-69
8.89033e-69
-4.66437e-69
4.29592e-69
-2.12586e-68
5.79185e-68
-2.36445e-69
-4.61366e-68
-6.29737e-68
-1.26933e-67
5.33509e-68
-4.32091e-67
1.35666e-67
-3.59374e-67
1.4598e-67
-3.10515e-67
1.91179e-67
-4.19381e-67
8.90694e-68
-5.12821e-68
3.71756e-68
1.96398e-67
3.01372e-68
2.53419e-68
-8.45785e-67
3.30905e-66
-6.72196e-67
2.54509e-66
-1.59416e-66
1.20758e-66
-6.55601e-67
1.80714e-66
3.61455e-67
-6.44023e-68
-8.87519e-67
-4.85134e-66
-1.72753e-66
-8.59346e-66
6.23473e-69
-6.8781e-66
-5.38704e-66
-1.0764e-66
-8.26931e-66
-1.46093e-65
1.96997e-66
-2.34895e-65
3.50631e-66
-1.18899e-65
2.74915e-66
-2.89072e-65
1.63373e-65
-4.54216e-65
1.23819e-65
-5.06583e-65
6.34095e-66
-5.09256e-65
5.08951e-65
-7.12796e-65
3.63829e-65
-3.7036e-65
2.84362e-65
-6.07418e-67
4.91262e-65
-1.48513e-64
6.41775e-65
-1.53809e-64
-4.96197e-66
-1.00365e-64
-2.65303e-65
-1.88582e-64
7.63004e-65
-1.14247e-64
7.4469e-65
-3.99539e-64
1.585e-64
-6.81177e-64
5.44764e-64
-9.30389e-64
5.71785e-64
-5.69732e-64
3.39446e-64
-8.86522e-64
7.80601e-64
-5.78231e-64
2.14059e-64
1.71142e-63
-1.44279e-63
4.46277e-63
-2.86102e-63
6.78329e-63
-8.52172e-63
4.95556e-63
-8.75817e-63
8.1869e-63
-9.4029e-63
7.60148e-63
-8.71712e-63
5.64367e-63
-1.44982e-62
7.77089e-63
-1.45563e-62
2.03549e-63
-1.02123e-62
-2.09257e-63
-1.20689e-62
1.86957e-63
-1.26239e-62
-8.42391e-63
-5.96662e-63
-1.6994e-62
-2.56526e-63
-7.64468e-63
-4.82648e-63
-1.63232e-62
7.08478e-63
-1.48451e-62
1.31531e-63
-7.51921e-63
3.96968e-64
-6.78198e-63
1.27016e-63
-8.52468e-63
1.22834e-63
-6.83184e-63
1.49921e-63
1.66853e-62
-1.34557e-63
1.86128e-62
-5.84103e-63
3.50304e-63
-3.95761e-63
8.90453e-63
-6.19342e-63
-1.99726e-62
5.93046e-63
-3.67062e-62
1.40176e-62
-2.56645e-62
1.29721e-62
-9.30139e-62
4.89412e-62
-3.524e-62
2.79187e-62
-7.21548e-62
3.63171e-62
-1.1753e-61
6.52375e-62
-1.25056e-61
7.91763e-62
-1.38448e-61
8.42684e-62
-1.42228e-61
1.04921e-61
-1.20211e-61
6.60757e-62
-1.42601e-61
6.80527e-62
-8.24471e-62
6.35391e-62
-1.47715e-61
8.38447e-62
-1.11931e-61
1.81768e-62
-9.4597e-62
3.74518e-62
-1.21021e-61
5.09112e-62
-7.61854e-62
6.07701e-63
-5.25436e-62
2.72272e-62
-5.34637e-62
-2.27639e-62
9.41251e-62
-5.26447e-62
-3.03197e-63
-7.27382e-62
-3.69196e-62
-6.95488e-62
-1.13905e-62
-7.64979e-62
-2.17407e-62
-7.70617e-62
2.94859e-62
-1.00758e-61
5.50441e-62
-9.4905e-62
1.04743e-61
-1.01426e-61
9.62523e-62
-1.09648e-61
1.66511e-61
-1.31088e-61
1.07228e-61
-1.04731e-61
8.50965e-62
-8.34588e-62
1.10414e-61
-8.9122e-62
6.52902e-62
-6.65234e-62
4.74262e-63
-3.75593e-62
3.22264e-62
-2.22463e-62
-1.89674e-64
-1.69046e-62
-5.01829e-64
-1.75074e-63
-4.66012e-63
5.50881e-63
-2.09506e-62
1.17143e-62
-2.10523e-62
2.32513e-62
-7.77839e-63
3.68177e-62
-1.91351e-62
3.76602e-62
-2.81757e-62
4.05388e-62
-2.83245e-62
3.80128e-62
-3.97004e-62
4.0363e-62
-2.4427e-62
4.14944e-62
-2.11339e-62
9.16894e-60
-2.17231e-62
9.93687e-58
-2.88711e-58
-8.24849e-57
-2.28589e-56
-1.81795e-55
5.24722e-56
2.52447e-53
4.46713e-54
-3.85429e-52
-3.56261e-52
-4.2226e-51
4.84065e-51
-3.19514e-49
5.5938e-50
-1.01735e-49
3.72282e-48
-6.00016e-47
1.99897e-47
1.33021e-45
4.8042e-46
7.0685e-46
-7.30004e-45
-8.5913e-45
-7.59057e-44
-4.90109e-44
-2.14159e-43
1.25134e-43
2.83434e-43
1.46269e-41
3.95322e-43
-1.5487e-39
-7.75809e-41
3.38546e-38
2.27674e-38
5.33764e-37
-4.39851e-37
-7.67162e-36
-6.90349e-36
5.55385e-36
3.11244e-35
-5.2615e-35
3.1965e-34
2.12032e-35
-1.95934e-10
-2.25295e-14
5.37793e-14
6.53058e-14
-7.21675e-11
-1.38479e-10
8.7503e-14
3.53418e-15
1.45274e-13
2.18991e-09
-6.36879e-11
5.3288e-09
-5.25139e-12
-1.52872e-11
-9.64563e-08
6.42215e-08
1.45374e-05
7.23467e-05
0.000164511
0.000230791
0.000247881
0.000247684
0.000244963
0.000244513
0.000242869
0.000233286
0.000203349
0.000148686
8.7664e-05
4.08218e-05
1.40312e-05
3.40627e-06
3.67347e-07
-7.89087e-08
-3.98143e-08
-5.9724e-09
3.84306e-10
2.13316e-10
-6.46952e-12
-3.91105e-12
5.10847e-13
-7.07599e-15
-5.43867e-15
8.78921e-16
-7.42425e-17
4.89867e-18
-3.14217e-19
1.99451e-20
-1.31447e-21
9.1461e-23
-6.2706e-24
3.61185e-25
-1.20872e-26
1.22575e-29
1.96249e-29
-7.6811e-31
1.73462e-33
-3.4053e-33
-8.39923e-33
8.36368e-34
-3.78998e-15
8.24955e-15
-1.36231e-11
3.40112e-13
-3.60193e-14
1.62132e-13
-3.5658e-14
-1.30072e-13
6.3574e-14
6.95542e-14
-4.85955e-14
-3.06541e-16
-1.02582e-13
-3.94211e-14
-3.23944e-13
-1.83863e-13
-5.99163e-14
-2.33744e-13
5.10334e-14
1.23032e-13
4.28794e-13
1.63376e-13
3.76904e-14
7.84276e-14
1.69631e-13
5.46612e-13
8.5384e-14
-1.78985e-13
4.22671e-13
3.558e-13
-2.45479e-13
6.86394e-13
-6.41689e-14
-8.56933e-13
-2.78576e-12
4.97602e-13
-4.33712e-13
-5.11285e-13
1.29853e-12
1.0596e-11
-2.74114e-11
-3.64511e-11
2.98002e-12
4.30028e-12
5.61726e-11
4.50289e-11
-3.58504e-11
1.87923e-11
-4.23168e-11
-9.93136e-11
8.67463e-11
7.26274e-11
-3.91539e-11
4.96719e-11
-3.26949e-11
-1.07903e-10
5.60742e-11
5.50854e-11
-4.30713e-11
1.40685e-11
1.58316e-11
-5.5475e-11
1.50377e-11
6.05276e-11
-3.49988e-11
-3.17423e-11
2.66204e-11
-9.27727e-12
-8.84508e-13
3.06906e-11
-5.22864e-12
-1.38139e-11
3.1652e-12
-2.5062e-12
6.46362e-12
-9.9507e-41
1.04527e-14
4.68682e-14
6.75924e-14
2.50961e-13
5.05104e-13
7.88682e-13
-1.70421e-13
-9.07935e-13
7.52272e-14
-2.43962e-14
-9.63558e-14
8.00806e-14
-3.92871e-14
1.58612e-14
-1.28782e-14
1.39136e-14
1.3337e-14
-4.40447e-14
1.92287e-14
1.37445e-14
-2.20436e-14
1.45073e-14
-7.91951e-15
7.98468e-33
-4.59863e-32
4.60374e-40
-9.62274e-14
1.68274e-13
-1.51441e-13
1.52654e-11
2.00369e-11
5.63231e-12
-8.4136e-15
-3.24588e-15
9.60239e-13
-4.01296e-12
-1.73655e-14
-9.75848e-15
3.65267e-16
1.94382e-30
-9.14803e-30
-1.26574e-14
-1.06002e-12
9.41171e-29
-8.64122e-15
-3.6056e-27
7.36219e-27
2.82809e-25
1.21288e-24
1.93419e-24
5.01173e-24
-6.95559e-24
-1.82676e-23
1.85486e-23
-1.61414e-23
-2.33845e-23
-6.3037e-24
-1.03717e-23
-1.25061e-24
5.99975e-23
-1.59759e-22
-1.22077e-21
3.74088e-21
1.2317e-20
1.02296e-20
1.83969e-20
7.42274e-21
-7.4313e-21
-4.61938e-20
-1.84916e-19
-5.61391e-21
-2.29829e-20
-5.85906e-20
4.77769e-20
2.05545e-19
8.21353e-20
-1.71019e-19
-2.53752e-19
-1.49845e-19
-5.07577e-19
-6.77383e-19
-6.3742e-19
1.34516e-18
9.96916e-20
-1.98159e-18
7.42315e-19
-1.52644e-18
-4.095e-19
2.70964e-18
7.15508e-18
-5.15783e-18
1.12812e-17
2.31249e-17
2.11663e-17
1.93464e-17
-2.04807e-17
-1.0161e-16
-1.67249e-16
-2.91417e-16
-3.04617e-16
-3.12378e-16
-2.92916e-16
-2.35926e-16
-9.52588e-17
1.49868e-16
3.38194e-16
4.78296e-16
5.87895e-16
5.18427e-16
4.08117e-16
3.08437e-16
1.60831e-16
-1.33217e-17
-7.58358e-17
-1.88157e-16
-2.25325e-16
-2.11082e-16
-2.03643e-16
-1.49664e-16
-1.02534e-16
-6.37389e-17
-2.55472e-17
8.29755e-19
2.1927e-17
3.18993e-17
3.81723e-17
3.22735e-17
3.15729e-17
2.63341e-17
1.7616e-17
1.17158e-17
5.77181e-18
2.23761e-18
-2.2412e-19
-1.10214e-18
-2.34958e-18
-2.54846e-18
-2.10613e-18
2.24357e-18
-2.61403e-17
-9.82331e-26
-1.05721e-25
-1.33994e-26
2.06052e-27
6.66121e-12
5.19148e-09
-2.90631e-07
3.63468e-06
3.66695e-05
0.000118445
0.000203754
0.000243716
0.000248078
0.000246264
0.000244781
0.000244236
0.000240109
0.000221931
0.00017795
0.000117735
6.16767e-05
2.50448e-05
7.32299e-06
1.33871e-06
6.52443e-09
-6.8308e-08
-1.78395e-08
-1.0245e-09
4.33348e-10
5.46757e-11
-1.09349e-11
-5.97425e-14
1.81805e-13
-2.39321e-14
1.2118e-15
2.42248e-17
-1.17981e-17
1.4703e-18
-1.12437e-19
7.58434e-21
-3.98006e-22
1.57408e-23
-1.90303e-25
-3.50595e-26
3.23746e-27
-1.22738e-28
8.10303e-31
1.16943e-31
6.79587e-34
-2.57857e-16
-7.62893e-12
5.06203e-12
-1.26254e-14
-4.72891e-38
-2.51586e-14
-9.0011e-14
-1.05207e-13
-3.1773e-13
-6.47481e-13
-1.36218e-13
-2.29943e-13
1.67113e-12
1.49644e-13
9.19054e-15
-5.40998e-15
2.51229e-14
-1.6259e-14
-1.54042e-14
8.53051e-15
6.69067e-15
4.34987e-14
-5.61213e-14
3.58644e-14
-1.81903e-14
1.18933e-15
6.36964e-15
-7.18177e-33
-2.34295e-23
1.02062e-26
-1.16425e-13
-8.56186e-15
1.51724e-14
-2.53741e-14
1.05491e-14
1.21719e-12
1.24277e-12
4.08292e-13
-5.475e-14
6.05823e-14
1.54146e-13
1.44351e-32
-1.60349e-30
3.26375e-29
3.54188e-28
-2.98288e-26
7.19852e-25
-1.0312e-23
1.25569e-22
-1.35745e-21
1.76773e-20
-3.16221e-19
5.9624e-18
-1.16305e-16
1.58358e-15
-1.23535e-14
2.90183e-14
6.6522e-13
-7.41013e-12
4.15151e-12
3.39395e-10
1.90907e-10
-1.04242e-08
-5.6841e-08
-7.57033e-08
7.10798e-07
5.16775e-06
1.96515e-05
5.32981e-05
0.000109368
0.000174711
0.000228417
0.000254068
0.00026032
0.000261235
0.000262168
0.00026424
0.000263716
0.000235651
0.000152034
5.50286e-05
3.63277e-16
3.82173e-18
7.5328e-19
2.20968e-18
2.29379e-18
3.03178e-18
4.76202e-18
5.87257e-18
7.03046e-18
7.69568e-18
6.7071e-18
9.08295e-18
4.95081e-18
-5.81328e-18
-2.53998e-17
-3.8155e-17
-6.96143e-17
-6.78646e-17
-7.9883e-17
-1.15854e-16
-9.32268e-17
-6.11504e-17
-4.4721e-17
4.91492e-17
1.17863e-16
1.78825e-16
2.7191e-16
4.54523e-16
4.43126e-16
4.62838e-16
3.59526e-16
1.00054e-16
-6.602e-17
-2.88141e-16
-6.09311e-16
-8.23262e-16
-9.2417e-16
-7.4483e-16
-6.60182e-16
-3.55158e-16
-1.64373e-16
1.45636e-16
3.14075e-16
3.90994e-16
3.61922e-16
2.90391e-16
1.78957e-16
6.79084e-17
6.72997e-17
5.6548e-17
1.31796e-17
1.07515e-17
-1.2388e-19
2.39684e-18
-1.88909e-18
2.30093e-18
-3.13526e-18
-4.44658e-18
1.94691e-18
3.19277e-18
2.33452e-18
-3.33465e-23
-4.57578e-23
1.88986e-18
1.7418e-18
1.20261e-18
1.0393e-18
2.55248e-19
1.83269e-19
1.48822e-19
2.68152e-19
1.34524e-19
1.44484e-19
-1.15249e-19
7.76084e-22
4.62308e-20
-9.39691e-21
-1.84387e-20
-3.16031e-20
1.71063e-21
1.98503e-21
-1.30945e-23
-1.71736e-22
1.90304e-22
8.75988e-23
7.2707e-23
2.23905e-23
5.40049e-23
-9.63957e-15
1.45069e-14
-1.25131e-14
1.21564e-14
1.38499e-14
-2.68002e-14
1.03538e-14
1.05319e-12
-2.36146e-12
-1.40498e-12
-7.60718e-13
5.45466e-15
5.00657e-14
5.58415e-14
1.94792e-31
3.60355e-30
-2.63136e-28
5.61097e-27
-2.79138e-26
-1.21205e-24
4.40661e-23