/*--------------------------------*- C++ -*----------------------------------*\
  =========                 |
  \\      /  F ield         | OpenFOAM: The Open Source CFD Toolbox
   \\    /   O peration     | Website:  https://openfoam.org
    \\  /    A nd           | Version:  7
     \\/     M anipulation  |
\*---------------------------------------------------------------------------*/
FoamFile
{
    version     2.0;
    format      ascii;
    class       volScalarField;
    location    "0.35";
    object      T;
}
// * * * * * * * * * * * * * * * * * * * * * * * * * * * * * * * * * * * * * //

dimensions      [0 0 0 1 0 0 0];

internalField   nonuniform List<scalar> 
10000
(
0.5
0.0669146
-0.0353169
-0.0277115
-0.00789976
0.00112931
0.00220711
0.000963795
3.88568e-05
-0.000206219
-0.000130475
-2.60569e-05
1.7614e-05
1.74821e-05
6.08456e-06
-9.07019e-07
-2.21071e-06
-1.14299e-06
-1.2079e-07
2.29698e-07
1.71453e-07
4.26293e-08
-1.66494e-08
-1.37856e-08
5.84468e-09
1.56387e-08
1.28908e-08
5.0362e-09
-1.40035e-09
-4.16733e-09
-4.03144e-09
-2.63151e-09
-1.19613e-09
-2.47223e-10
1.89334e-10
2.88388e-10
2.33008e-10
1.41692e-10
6.76257e-11
2.29367e-11
1.88677e-12
-5.10276e-12
-5.5936e-12
-3.99325e-12
-2.28961e-12
-1.09592e-12
-4.23634e-13
-1.08418e-13
9.8012e-15
3.77884e-14
3.3099e-14
2.14139e-14
1.16636e-14
5.5192e-15
2.24347e-15
7.27322e-16
1.28399e-16
-5.5914e-17
-8.15314e-17
-6.12475e-17
-3.6746e-17
-1.92059e-17
-8.96885e-18
-3.7339e-18
-1.34078e-18
-3.69203e-19
-3.32422e-20
5.1558e-20
5.31676e-20
3.60364e-20
2.04717e-20
1.038e-20
4.79852e-21
2.02714e-21
7.70921e-22
2.51582e-22
5.96155e-23
-6.39921e-26
-1.23592e-23
-1.07539e-23
-6.82644e-24
-3.73921e-24
-1.85875e-24
-8.54728e-25
-3.65408e-25
-1.44394e-25
-5.16419e-26
-1.57902e-26
-3.36262e-27
2.23123e-28
8.50683e-28
6.84374e-28
4.19253e-28
2.2506e-28
1.10787e-28
5.09522e-29
2.20482e-29
8.97149e-30
3.41098e-30
9.52189e-31
0.933085
0.5
0.14482
-0.0139075
-0.0411718
-0.0230289
-0.00507433
0.00215701
0.00250723
0.00101071
-9.54847e-08
-0.000255324
-0.000158212
-3.18213e-05
2.20247e-05
2.24079e-05
8.20054e-06
-9.14061e-07
-2.83122e-06
-1.55607e-06
-2.30418e-07
2.43936e-07
1.70326e-07
-9.89195e-10
-7.06079e-08
-4.63099e-08
3.07637e-09
3.29349e-08
3.59709e-08
2.39331e-08
9.75165e-09
1.52182e-10
-3.91647e-09
-4.26653e-09
-3.03454e-09
-1.62154e-09
-6.12005e-10
-7.53932e-11
1.2583e-10
1.51235e-10
1.11928e-10
6.4907e-11
3.05339e-11
1.09033e-11
1.84689e-12
-1.28592e-12
-1.74915e-12
-1.32417e-12
-7.92159e-13
-4.01022e-13
-1.72026e-13
-5.85357e-14
-1.11098e-14
4.32008e-15
6.76135e-15
5.19354e-15
3.14646e-15
1.64328e-15
7.56536e-16
3.03522e-16
9.96519e-17
2.02087e-17
-4.56876e-18
-8.71563e-18
-6.80862e-18
-4.15675e-18
-2.20642e-18
-1.05226e-18
-4.53486e-19
-1.73809e-19
-5.59739e-20
-1.2142e-20
1.24661e-21
3.6797e-21
2.97281e-21
1.83604e-21
9.8708e-22
4.8135e-22
2.15934e-22
8.90518e-23
3.32174e-23
1.06841e-23
2.5187e-24
2.03334e-26
-4.89588e-25
-4.26734e-25
-2.70088e-25
-1.47614e-25
-7.33764e-26
-3.38528e-26
-1.45924e-26
-5.86068e-27
-2.16233e-27
-7.06389e-28
-1.83251e-28
-1.96085e-29
1.86098e-29
1.95846e-29
1.30024e-29
7.55294e-30
1.03532
0.85518
0.5
0.182448
0.00830365
-0.0419281
-0.032441
-0.0120093
3.84385e-05
0.00307766
0.00201937
0.000522652
-0.00018972
-0.000261919
-0.000118916
-6.08098e-06
2.86018e-05
2.02781e-05
5.30623e-06
-2.1027e-06
-2.73978e-06
-1.11109e-06
6.20766e-08
2.98115e-07
8.00322e-08
-1.30123e-07
-1.77709e-07
-1.12071e-07
-2.52783e-08
2.96303e-08
4.52129e-08
3.6569e-08
2.06624e-08
7.48963e-09
3.61886e-12
-2.76386e-09
-2.87337e-09
-2.00451e-09
-1.08383e-09
-4.44641e-10
-1.03016e-10
3.47459e-11
6.54292e-11
5.397e-11
3.3706e-11
1.73514e-11
7.32321e-12
2.26115e-12
1.79286e-13
-4.31464e-13
-4.54859e-13
-3.1639e-13
-1.80291e-13
-8.84374e-14
-3.72646e-14
-1.2712e-14
-2.64366e-15
6.36923e-16
1.21576e-15
9.60244e-16
5.89655e-16
3.12353e-16
1.46979e-16
6.13377e-17
2.19121e-17
5.87882e-18
3.71767e-19
-9.72257e-19
-9.49261e-19
-6.32007e-19
-3.54766e-19
-1.7775e-19
-8.09546e-20
-3.34727e-20
-1.22867e-20
-3.7304e-21
-6.91747e-22
1.7382e-22
2.95816e-22
2.22213e-22
1.32697e-22
6.98827e-23
3.36163e-23
1.49538e-23
6.14789e-24
2.30313e-24
7.55066e-25
1.90793e-25
1.39978e-26
-2.57807e-26
-2.48932e-26
-1.62679e-26
-9.04822e-27
-4.5592e-27
-2.13227e-27
-9.34259e-28
-3.8364e-28
-1.4639e-28
-5.09319e-29
-1.07162e-29
1.02771
1.01391
0.817552
0.5
0.206389
0.0268058
-0.0388677
-0.0384381
-0.0184166
-0.00302401
0.00284106
0.00282245
0.00118552
4.26374e-05
-0.000296273
-0.000211944
-6.03279e-05
1.86461e-05
2.92949e-05
1.42708e-05
1.35117e-06
-2.87158e-06
-1.95508e-06
-2.0103e-07
5.65371e-07
4.27032e-07
1.8444e-08
-2.43921e-07
-2.80406e-07
-1.86146e-07
-7.14043e-08
5.67547e-09
3.67036e-08
3.71638e-08
2.52489e-08
1.26853e-08
4.1222e-09
-1.62963e-10
-1.55724e-09
-1.52451e-09
-1.03522e-09
-5.57879e-10
-2.3747e-10
-6.74421e-11
3.39983e-12
2.26298e-11
2.09166e-11
1.38468e-11
7.54835e-12
3.47098e-12
1.29301e-12
3.14557e-13
-3.73178e-14
-1.14851e-13
-9.76402e-14
-6.21206e-14
-3.34785e-14
-1.57616e-14
-6.42505e-15
-2.12786e-15
-4.2565e-16
1.10493e-16
1.99039e-16
1.54727e-16
9.4234e-17
4.97933e-17
2.35301e-17
9.96475e-18
3.68986e-18
1.09607e-18
1.67977e-19
-8.91456e-20
-1.15271e-19
-8.2767e-20
-4.84143e-20
-2.50601e-20
-1.18022e-20
-5.0901e-21
-1.99111e-21
-6.82185e-22
-1.83323e-22
-1.92197e-23
2.08665e-23
2.2046e-23
1.48776e-23
8.42122e-24
4.28309e-24
2.00781e-24
8.74863e-25
3.53429e-25
1.30337e-25
4.20683e-26
1.04113e-26
6.62983e-28
-1.46831e-27
-1.38345e-27
-8.95249e-28
-4.9522e-28
-2.48474e-28
-1.10894e-28
1.0079
1.04117
0.991696
0.793611
0.5
0.223365
0.042154
-0.0343031
-0.0421139
-0.0239643
-0.00647534
0.00197759
0.00332493
0.0018677
0.000400569
-0.00024505
-0.000285973
-0.000129785
-8.67794e-06
3.05772e-05
2.28926e-05
6.53941e-06
-2.05679e-06
-2.85202e-06
-7.48956e-07
8.49269e-07
1.12455e-06
6.25237e-07
4.57916e-08
-2.74875e-07
-3.25832e-07
-2.3228e-07
-1.12046e-07
-2.52624e-08
1.70617e-08
2.74925e-08
2.2482e-08
1.35777e-08
6.252e-09
1.85725e-09
-1.43192e-10
-7.27222e-10
-6.78396e-10
-4.50765e-10
-2.42138e-10
-1.05733e-10
-3.37461e-11
-3.02703e-12
6.3621e-12
6.88997e-12
4.84941e-12
2.77524e-12
1.35558e-12
5.60525e-13
1.80599e-13
2.7865e-14
-1.88382e-14
-2.42269e-14
-1.77462e-14
-1.04767e-14
-5.36856e-15
-2.42986e-15
-9.56638e-16
-3.0506e-16
-5.6208e-17
1.88235e-17
2.96592e-17
2.24008e-17
1.34488e-17
7.0556e-18
3.33105e-18
1.42062e-18
5.37266e-19
1.69097e-19
3.41222e-20
-6.00068e-21
-1.25318e-20
-9.74913e-21
-5.92144e-21
-3.14855e-21
-1.52126e-21
-6.76092e-22
-2.75727e-22
-1.0122e-22
-3.16235e-23
-6.84794e-24
4.72322e-25
1.78947e-24
1.45059e-24
8.9303e-25
4.80031e-25
2.35566e-25
1.07386e-25
4.56907e-26
1.80549e-26
6.50666e-27
2.03904e-27
4.75433e-28
1.31303e-29
-1.15425e-28
0.998871
1.02303
1.04193
0.973194
0.776635
0.5
0.236308
0.0551562
-0.0291433
-0.0442027
-0.0286476
-0.0100134
0.000662998
0.00351511
0.00249268
0.000838191
-0.000109792
-0.00032442
-0.000201809
-4.99513e-05
2.24617e-05
2.89496e-05
1.22727e-05
-8.5537e-07
-4.40263e-06
-2.38251e-06
3.81395e-07
1.69083e-06
1.56702e-06
8.3011e-07
1.49564e-07
-2.16069e-07
-2.99214e-07
-2.325e-07
-1.29342e-07
-4.81116e-08
-2.89139e-09
1.4055e-08
1.54263e-08
1.10178e-08
6.11788e-09
2.64186e-09
7.35307e-10
-7.36844e-11
-2.90995e-10
-2.62984e-10
-1.72321e-10
-9.25922e-11
-4.13487e-11
-1.43334e-11
-2.5467e-12
1.38167e-12
1.97029e-12
1.49621e-12
8.99094e-13
4.61889e-13
2.05351e-13
7.63588e-14
2.03866e-14
3.08853e-16
-4.597e-15
-4.27794e-15
-2.82043e-15
-1.56743e-15
-7.69227e-16
-3.36111e-16
-1.28066e-16
-3.92732e-17
-6.51355e-18
2.92055e-18
4.05227e-18
2.97075e-18
1.75728e-18
9.14716e-19
4.30899e-19
1.84585e-19
7.08803e-20
2.32293e-20
5.44777e-21
-1.01957e-22
-1.22904e-21
-1.0539e-21
-6.65731e-22
-3.63085e-22
-1.79383e-22
-8.16918e-23
-3.43834e-23
-1.32368e-23
-4.51292e-24
-1.23807e-24
-1.64447e-25
1.05313e-25
1.23315e-25
8.51226e-26
4.87274e-26
2.50315e-26
1.18819e-26
5.2717e-27
2.19284e-27
7.28342e-28
0.997793
1.00507
1.03244
1.03887
0.957846
0.763692
0.5
0.246668
0.0663826
-0.0238073
-0.0451888
-0.0325522
-0.0134732
-0.000958968
0.00341742
0.00301625
0.0013143
9.81813e-05
-0.000318685
-0.000264951
-9.89103e-05
6.63658e-06
3.26453e-05
1.8945e-05
1.25115e-06
-6.56173e-06
-5.75239e-06
-1.91658e-06
1.06047e-06
2.10053e-06
1.76561e-06
9.58196e-07
2.69211e-07
-1.08478e-07
-2.22676e-07
-1.93669e-07
-1.20536e-07
-5.59204e-08
-1.5794e-08
2.70731e-09
7.9252e-09
7.10753e-09
4.62366e-09
2.41495e-09
9.96184e-10
2.6675e-10
-2.75327e-11
-1.024e-10
-9.11065e-11
-5.93187e-11
-3.20051e-11
-1.46028e-11
-5.39763e-12
-1.29242e-12
1.72786e-13
4.89903e-13
4.13388e-13
2.62371e-13
1.41298e-13
6.65321e-14
2.71373e-14
8.99376e-15
1.79804e-15
-4.72133e-16
-8.48002e-16
-6.59952e-16
-4.02533e-16
-2.13009e-16
-1.00776e-16
-4.26984e-17
-1.57936e-17
-4.66382e-18
-6.85161e-19
4.09915e-19
5.12991e-19
3.66137e-19
2.13684e-19
1.10438e-19
5.19139e-20
2.23185e-20
8.67782e-21
2.93517e-21
7.60815e-22
5.60693e-23
-1.08151e-22
-1.05723e-22
-6.98122e-23
-3.9079e-23
-1.97179e-23
-9.17428e-24
-3.96281e-24
-1.58183e-24
-5.7226e-25
-1.77934e-25
-3.95313e-26
1.20988e-27
8.82294e-27
7.32332e-27
4.52497e-27
2.45767e-27
0.999036
0.997843
1.01201
1.03844
1.0343
0.944844
0.753332
0.5
0.255249
0.0762288
-0.0184971
-0.0453945
-0.0357827
-0.0167682
-0.0027791
0.00306928
0.00341568
0.00179457
0.000361665
-0.000268463
-0.00031245
-0.00015013
-1.40965e-05
3.59272e-05
2.89408e-05
6.90945e-06
-7.28132e-06
-9.98838e-06
-6.30044e-06
-1.67218e-06
1.2023e-06
2.05683e-06
1.6945e-06
9.61598e-07
3.47155e-07
-3.19146e-09
-1.32417e-07
-1.36595e-07
-9.47151e-08
-5.06063e-08
-2.01084e-08
-3.96075e-09
2.37178e-09
3.58431e-09
2.83025e-09
1.7215e-09
8.5994e-10
3.44033e-10
9.0919e-11
-7.77893e-12
-3.22829e-11
-2.87118e-11
-1.87048e-11
-1.01694e-11
-4.73903e-12
-1.84596e-12
-5.27216e-13
-2.92486e-14
1.03434e-13
1.02913e-13
6.9829e-14
3.94632e-14
1.95355e-14
8.53206e-15
3.199e-15
9.24406e-16
1.00055e-16
-1.21248e-16
-1.32172e-16
-9.16088e-17
-5.26347e-17
-2.67559e-17
-1.22713e-17
-5.06221e-18
-1.82369e-18
-5.1991e-19
-6.68301e-20
5.26176e-20
6.07746e-20
4.24009e-20
2.44625e-20
1.25674e-20
5.89835e-21
2.5445e-21
1.00027e-21
3.4732e-22
9.69066e-23
1.31765e-23
-8.32073e-24
-9.89704e-24
-6.89141e-24
-3.96766e-24
-2.0444e-24
-9.70331e-25
-4.28683e-25
-1.76222e-25
-6.66286e-26
-2.24399e-26
-6.20442e-27
-8.13414e-31
0.999961
0.997493
0.999962
1.01842
1.04211
1.02914
0.933617
0.744751
0.5
0.262538
0.084976
-0.0133114
-0.0450399
-0.0384396
-0.0198573
-0.00471678
0.002511
0.00368269
0.00225214
0.000660601
-0.000181218
-0.000344979
-0.000203441
-4.02416e-05
3.89426e-05
4.42525e-05
1.97003e-05
-2.64592e-06
-1.20606e-05
-1.11758e-05
-6.20513e-06
-1.61077e-06
9.58582e-07
1.69709e-06
1.42323e-06
8.49421e-07
3.59949e-07
6.74446e-08
-5.68516e-08
-8.14639e-08
-6.41023e-08
-3.83945e-08
-1.82284e-08
-6.26619e-09
-6.64942e-10
1.21757e-09
1.39049e-09
1.00622e-09
5.8261e-10
2.81884e-10
1.10739e-10
2.95225e-11
-1.50697e-12
-9.23329e-12
-8.3363e-12
-5.46928e-12
-3.00569e-12
-1.43037e-12
-5.82351e-13
-1.87285e-13
-3.08335e-14
1.69531e-14
2.30006e-14
1.70567e-14
1.01669e-14
5.27683e-15
2.43677e-15
9.9359e-16
3.41223e-16
8.21576e-17
-3.04748e-18
-2.11641e-17
-1.82956e-17
-1.1681e-17
-6.40134e-18
-3.14729e-18
-1.40583e-18
-5.66709e-19
-1.99491e-19
-5.50885e-20
-6.14421e-21
6.2558e-21
6.79582e-21
4.65341e-21
2.65936e-21
1.35975e-21
6.37623e-22
2.76041e-22
1.09611e-22
3.89298e-23
1.15042e-23
2.08644e-24
-5.15639e-25
-8.65497e-25
-6.4413e-25
-3.8276e-25
-2.0156e-25
-9.75268e-26
-4.4005e-26
-1.66465e-26
1.00021
0.998989
0.996922
1.00302
1.02396
1.0442
1.02381
0.923771
0.737463
0.5
0.268848
0.0928297
-0.00829751
-0.0442781
-0.0406109
-0.022724
-0.00671174
0.0017837
0.00382181
0.00267113
0.000978187
-6.73419e-05
-0.000368972
-0.000265199
-7.87688e-05
3.60227e-05
6.24481e-05
4.07407e-05
1.07835e-05
-7.95772e-06
-1.32947e-05
-1.06033e-05
-5.6114e-06
-1.58772e-06
5.625e-07
1.21186e-06
1.06356e-06
6.69451e-07
3.17808e-07
9.66114e-08
-7.95233e-09
-3.9762e-08
-3.7578e-08
-2.52073e-08
-1.35704e-08
-5.84415e-09
-1.73961e-09
-3.97193e-12
4.94079e-10
4.80365e-10
3.26566e-10
1.8235e-10
8.62976e-11
3.36246e-11
9.19388e-12
-5.37687e-14
-2.41364e-12
-2.25036e-12
-1.49636e-12
-8.33652e-13
-4.05128e-13
-1.71372e-13
-6.00855e-14
-1.41679e-14
1.29492e-15
4.52693e-15
3.8269e-15
2.43077e-15
1.32394e-15
6.42284e-16
2.79185e-16
1.06567e-16
3.3191e-17
6.02448e-18
-1.95881e-18
-3.07618e-18
-2.31355e-18
-1.38883e-18
-7.32485e-19
-3.50204e-19
-1.52943e-19
-6.04419e-20
-2.0855e-20
-5.60017e-21
-5.40576e-22
6.96432e-22
7.22342e-22
4.87275e-22
2.76373e-22
1.40809e-22
6.60186e-23
2.86878e-23
1.14992e-23
4.16631e-24
1.28986e-24
2.78824e-25
-1.72237e-26
-7.0433e-26
-5.68958e-26
-3.65862e-26
1.00013
1
0.997981
0.997159
1.00648
1.02865
1.04519
1.0185
0.915024
0.731153
0.5
0.274394
0.0999448
-0.00347413
-0.0432177
-0.0423709
-0.0253656
-0.00871754
0.000929633
0.00385103
0.00305176
0.00130986
6.9609e-05
-0.000388592
-0.000343139
-0.000140983
1.52224e-05
7.43566e-05
6.54409e-05
3.27079e-05
4.70283e-06
-9.41263e-06
-1.20466e-05
-8.95282e-06
-4.69385e-06
-1.49181e-06
1.98828e-07
7.54797e-07
7.14329e-07
4.76151e-07
2.46935e-07
9.44032e-08
1.5838e-08
-1.39152e-08
-1.88301e-08
-1.44974e-08
-8.71622e-09
-4.3199e-09
-1.71154e-09
-4.391e-10
5.35553e-11
1.72806e-10
1.5136e-10
9.83041e-11
5.34571e-11
2.49372e-11
9.71203e-12
2.75323e-12
1.20663e-13
-5.77959e-13
-5.68424e-13
-3.85654e-13
-2.18439e-13
-1.0842e-13
-4.74424e-14
-1.77753e-14
-5.08449e-15
-4.83229e-16
7.40446e-16
7.83784e-16
5.40585e-16
3.10413e-16
1.57836e-16
7.23604e-17
2.97698e-17
1.06331e-17
2.94751e-18
3.00657e-19
-3.74284e-19
-3.97751e-19
-2.72164e-19
-1.5571e-19
-7.95698e-20
-3.71541e-20
-1.59168e-20
-6.18432e-21
-2.09786e-21
-5.50174e-22
-4.62557e-23
7.32339e-23
7.34099e-23
4.895e-23
2.76031e-23
1.40291e-23
6.58084e-24
2.87097e-24
1.16113e-24
4.28233e-25
1.38743e-25
1.91526e-26
1.00003
1.00026
0.999477
0.997178
0.998022
1.01001
1.03255
1.04539
1.01331
0.90717
0.725605
0.499999
0.27933
0.106442
0.00115544
-0.0419372
-0.0437839
-0.0277901
-0.0107021
-1.24102e-05
0.00379754
0.00341067
0.00166896
0.000242323
-0.000394987
-0.000436309
-0.000234523
-3.6502e-05
6.63155e-05
8.33143e-05
5.73519e-05
2.43537e-05
1.56237e-06
-8.39578e-06
-9.5693e-06
-6.88409e-06
-3.6472e-06
-1.29534e-06
-4.47628e-08
4.05899e-07
4.33284e-07
3.08255e-07
1.72369e-07
7.59183e-08
2.2401e-08
-9.0179e-10
-7.63857e-09
-7.27729e-09
-4.92685e-09
-2.73149e-09
-1.2669e-09
-4.66905e-10
-1.02465e-10
2.80893e-11
5.42482e-11
4.42238e-11
2.77726e-11
1.48193e-11
6.85557e-12
2.68436e-12
7.93578e-13
7.3988e-14
-1.26208e-13
-1.34898e-13
-9.41021e-14
-5.43558e-14
-2.75665e-14
-1.2438e-14
-4.91483e-15
-1.59066e-15
-3.12915e-16
8.03559e-17
1.4381e-16
1.11622e-16
6.8227e-17
3.63997e-17
1.75064e-17
7.63915e-18
2.98382e-18
9.93841e-19
2.37039e-19
-3.9157e-21
-5.43378e-20
-4.72335e-20
-3.01657e-20
-1.66048e-20
-8.26431e-21
-3.78216e-21
-1.59386e-21
-6.10422e-22
-2.0416e-22
-5.25351e-23
-3.91989e-24
7.32441e-24
7.16742e-24
4.73853e-24
2.66092e-24
1.35052e-24
6.34518e-25
2.52511e-25
0.999982
1.00016
1.00019
0.998814
0.996675
0.999337
1.01347
1.03578
1.04504
1.0083
0.900055
0.720669
0.499999
0.28377
0.112416
0.00559479
-0.0404983
-0.0449122
-0.0300227
-0.0126567
-0.00102064
0.00368322
0.00376975
0.00208153
0.000480571
-0.000360638
-0.000526472
-0.000353831
-0.000124638
2.66787e-05
8.18288e-05
7.48836e-05
4.51698e-05
1.73744e-05
4.19108e-07
-6.33262e-06
-6.86297e-06
-4.88597e-06
-2.64291e-06
-1.03323e-06
-1.6172e-07
1.80217e-07
2.37027e-07
1.82618e-07
1.09555e-07
5.34328e-08
2.00355e-08
3.93229e-09
-1.99945e-09
-3.09867e-09
-2.4581e-09
-1.52088e-09
-7.92043e-10
-3.48053e-10
-1.20483e-10
-2.24565e-11
1.03364e-11
1.56484e-11
1.21255e-11
7.43005e-12
3.91339e-12
1.80384e-12
7.1309e-13
2.20285e-13
3.07229e-14
-2.47303e-14
-3.01324e-14
-2.18175e-14
-1.28971e-14
-6.6882e-15
-3.10464e-15
-1.28227e-15
-4.52771e-16
-1.18272e-16
-4.51864e-18
2.24846e-17
2.12276e-17
1.40601e-17
7.90829e-18
3.98357e-18
1.8279e-18
7.62848e-19
2.83248e-19
8.73743e-20
1.68167e-20
-3.72457e-21
-6.84838e-21
-5.24865e-21
-3.17962e-21
-1.69574e-21
-8.25398e-22
-3.71323e-22
-1.54304e-22
-5.83854e-23
-1.93055e-23
-4.89805e-24
-3.35332e-25
7.00851e-25
6.70674e-25
4.65076e-25
0.999983
1.00003
1.00026
0.999957
0.998132
0.996485
1.00096
1.01677
1.03844
1.04428
1.00347
0.89356
0.716231
0.499999
0.287798
0.117942
0.00985069
-0.0389527
-0.0458211
-0.0321106
-0.0146065
-0.00210724
0.00350343
0.00413488
0.00256847
0.000819091
-0.000245052
-0.000577927
-0.000475586
-0.000240191
-4.6925e-05
5.247e-05
7.5522e-05
5.91917e-05
3.3009e-05
1.20734e-05
2.549e-07
-4.21105e-06
-4.51675e-06
-3.22964e-06
-1.79345e-06
-7.60083e-07
-1.86811e-07
5.56333e-08
1.15655e-07
9.91689e-08
6.39466e-08
3.38787e-08
1.46535e-08
4.58012e-09
2.89282e-10
-1.01289e-09
-1.06527e-09
-7.52095e-10
-4.35209e-10
-2.15724e-10
-9.07156e-11
-2.97776e-11
-4.70466e-12
3.20083e-12
4.21141e-12
3.14796e-12
1.89542e-12
9.90072e-13
4.56387e-13
1.8267e-13
5.89348e-14
1.06763e-14
-4.16129e-15
-6.32962e-15
-4.81748e-15
-2.92692e-15
-1.55393e-15
-7.41016e-16
-3.179e-16
-1.19874e-16
-3.67063e-17
-6.26707e-18
2.52137e-18
3.64408e-18
2.70659e-18
1.62091e-18
8.56574e-19
4.11629e-19
1.81285e-19
7.2589e-20
2.56141e-20
7.23513e-21
9.73961e-22
-6.63056e-22
-7.868e-22
-5.52519e-22
-3.21009e-22
-1.66752e-22
-7.96441e-23
-3.53081e-23
-1.44989e-23
-5.43098e-24
-1.79215e-24
-2.64524e-25
0.999994
0.999978
1.00012
1.0003
0.999599
0.997507
0.996583
1.00278
1.01986
1.04061
1.04322
0.99885
0.887593
0.712202
0.499992
0.291479
0.123087
0.0139394
-0.0373364
-0.0465721
-0.0341174
-0.0166098
-0.00332649
0.00321075
0.00447433
0.0031225
0.00127651
-1.12676e-05
-0.000547997
-0.000563102
-0.000359111
-0.000143888
-4.35827e-06
5.41225e-05
5.97552e-05
4.27581e-05
2.27625e-05
8.21548e-06
3.87819e-07
-2.51261e-06
-2.75464e-06
-2.00089e-06
-1.14437e-06
-5.19176e-07
-1.62402e-07
-1.33776e-09
4.87471e-08
4.91948e-08
3.44348e-08
1.96591e-08
9.41326e-09
3.62685e-09
8.93415e-10
-1.3829e-10
-3.78684e-10
-3.27537e-10
-2.13097e-10
-1.17121e-10
-5.58137e-11
-2.26523e-11
-7.12061e-12
-9.63175e-13
8.85052e-13
1.06869e-12
7.79143e-13
4.63578e-13
2.41065e-13
1.11444e-13
4.52448e-14
1.52143e-14
3.31564e-15
-5.20023e-16
-1.24453e-15
-1.01407e-15
-6.36756e-16
-3.46708e-16
-1.69719e-16
-7.53002e-17
-2.99148e-17
-1.01643e-17
-2.50979e-18
-1.35196e-20
5.36726e-19
4.81843e-19
3.1297e-19
1.74458e-19
8.77397e-20
4.05123e-20
1.71978e-20
6.62042e-21
2.21629e-21
5.6311e-22
3.2275e-23
-8.87399e-23
-8.44412e-23
-5.55826e-23
-3.12159e-23
-1.58607e-23
-7.46019e-24
-2.94476e-24
1
0.999978
1.00001
1.00021
1.00024
0.999162
0.996984
0.996931
1.00472
1.02272
1.04237
1.04194
0.994422
0.882072
0.708505
0.499973
0.294871
0.127924
0.017904
-0.0356499
-0.0471995
-0.0360986
-0.0187382
-0.00476281
0.00271657
0.00471059
0.00369258
0.00183581
0.000354356
-0.000403975
-0.000578456
-0.000449058
-0.000242737
-7.82667e-05
1.28141e-05
4.43995e-05
4.2621e-05
2.88075e-05
1.49547e-05
5.46623e-06
4.99033e-07
-1.35091e-06
-1.56575e-06
-1.16724e-06
-6.89241e-07
-3.31538e-07
-1.20952e-07
-2.02821e-08
1.60937e-08
2.20239e-08
1.71145e-08
1.05326e-08
5.47704e-09
2.40015e-09
8.19912e-10
1.38612e-10
-8.75239e-11
-1.21016e-10
-9.26846e-11
-5.67561e-11
-2.99589e-11
-1.38363e-11
-5.46079e-12
-1.66087e-12
-1.98004e-13
2.24628e-13
2.57669e-13
1.84834e-13
1.09176e-13
5.66941e-14
2.6343e-14
1.08597e-14
3.79548e-15
9.48871e-16
-9.92488e-18
-2.26483e-16
-2.03373e-16
-1.32977e-16
-7.44468e-17
-3.74074e-17
-1.71135e-17
-7.09897e-18
-2.59931e-18
-7.72153e-19
-1.23595e-19
5.71478e-20
7.75246e-20
5.66157e-20
3.36542e-20
1.77595e-20
8.57409e-21
3.82349e-21
1.56938e-21
5.81488e-22
1.84087e-22
4.08907e-23
-2.21239e-24
-1.0356e-23
-8.5464e-24
-5.52064e-24
1
0.999992
0.999971
1.00006
1.00029
1.00011
0.998686
0.996584
0.997489
1.00671
1.02536
1.04378
1.04051
0.990178
0.876926
0.705073
0.499934
0.298039
0.132551
0.0218362
-0.0338317
-0.047678
-0.038065
-0.0210391
-0.00649817
0.00191483
0.00473313
0.00418568
0.00243709
0.000828998
-0.000138472
-0.000496768
-0.000480432
-0.000318101
-0.00015211
-3.95137e-05
1.58815e-05
3.1852e-05
2.81034e-05
1.83258e-05
9.41401e-06
3.54147e-06
5.06628e-07
-6.48595e-07
-8.31579e-07
-6.43219e-07
-3.93141e-07
-1.9914e-07
-8.09792e-08
-2.15258e-08
2.40311e-09
8.6226e-09
7.81126e-09
5.22996e-09
2.93174e-09
1.41183e-09
5.70016e-10
1.70243e-10
1.20032e-11
-3.33e-11
-3.4886e-11
-2.45701e-11
-1.43633e-11
-7.34314e-12
-3.30855e-12
-1.27846e-12
-3.80225e-13
-4.20363e-14
5.3118e-14
5.93632e-14
4.22032e-14
2.48447e-14
1.2917e-14
6.04269e-15
2.53074e-15
9.16505e-16
2.54646e-16
2.25949e-17
-3.71948e-17
-3.87523e-17
-2.667e-17
-1.54079e-17
-7.95222e-18
-3.74435e-18
-1.61201e-18
-6.25119e-19
-2.08225e-19
-5.05428e-20
-1.99328e-22
1.06392e-20
9.4756e-21
6.131e-21
3.41715e-21
1.72579e-21
8.04747e-22
3.4792e-22
1.38397e-22
4.93704e-23
1.48462e-23
8.93995e-25
1
1
0.99998
0.999981
1.00013
1.00033
0.999902
0.998203
0.996316
0.99822
1.00872
1.02778
1.0449
1.03897
0.986112
0.872093
0.701843
0.49987
0.301054
0.1371
0.0258879
-0.0317411
-0.0478968
-0.0399478
-0.0234946
-0.00856967
0.000720872
0.0044294
0.00448746
0.00298722
0.00135347
0.000223942
-0.000316195
-0.000436675
-0.000349228
-0.000207811
-9.03844e-05
-1.89654e-05
1.30638e-05
2.07809e-05
1.73872e-05
1.10965e-05
5.69838e-06
2.225e-06
4.34464e-07
-2.69073e-07
-4.12353e-07
-3.35452e-07
-2.12946e-07
-1.13081e-07
-4.99324e-08
-1.66264e-08
-2.06605e-09
2.69549e-09
3.22619e-09
2.40455e-09
1.45505e-09
7.5819e-10
3.41738e-10
1.27493e-10
3.24268e-11
-2.18177e-12
-1.04214e-11
-9.32302e-12
-6.17583e-12
-3.48172e-12
-1.73548e-12
-7.67119e-13
-2.92006e-13
-8.58115e-14
-9.39098e-15
1.18021e-14
1.31233e-14
9.30576e-15
5.47864e-15
2.85805e-15
1.34788e-15
5.73597e-16
2.14592e-16
6.48111e-17
1.03513e-17
-5.16902e-18
-6.97269e-18
-5.13365e-18
-3.07637e-18
-1.6333e-18
-7.90779e-19
-3.5189e-19
-1.4294e-19
-5.15594e-20
-1.52118e-20
-2.50242e-21
1.01399e-21
1.4267e-21
1.04689e-21
6.24175e-22
3.31008e-22
1.61201e-22
7.30648e-23
2.69531e-23
1
1
0.999995
0.99997
1.00001
1.0002
1.00032
0.999633
0.997741
0.996185
0.999091
1.0107
1.02998
1.04578
1.03738
0.982223
0.867506
0.698734
0.499757
0.303986
0.141725
0.0302612
-0.029165
-0.0476582
-0.0415845
-0.025996
-0.0109349
-0.000889968
0.00372228
0.004494
0.00338297
0.00184571
0.000631448
-5.96817e-05
-0.000319649
-0.000326443
-0.000232122
-0.000127944
-5.17602e-05
-8.93835e-06
8.93139e-06
1.25864e-05
1.01907e-05
6.43114e-06
3.32462e-06
1.35176e-06
3.29741e-07
-8.67454e-08
-1.89894e-07
-1.65626e-07
-1.09742e-07
-6.09511e-08
-2.87628e-08
-1.10065e-08
-2.70598e-09
4.23243e-10
1.16223e-09
1.01601e-09
6.71151e-10
3.76631e-10
1.8483e-10
7.85429e-11
2.70863e-11
5.60282e-12
-1.58137e-12
-2.90997e-12
-2.3479e-12
-1.48473e-12
-8.13418e-13
-3.97441e-13
-1.73169e-13
-6.52914e-14
-1.91441e-14
-2.20844e-15
2.47402e-15
2.79231e-15
1.98674e-15
1.1734e-15
6.15374e-16
2.92881e-16
1.26637e-16
4.88037e-17
1.57676e-17
3.35364e-18
-4.76808e-19
-1.17001e-18
-9.46303e-19
-5.92653e-19
-3.24492e-19
-1.61534e-19
-7.4101e-20
-3.13023e-20
-1.19874e-20
-3.97685e-21
-9.83315e-22
-3.05953e-23
1.79666e-22
1.64908e-22
1.07455e-22
5.96138e-23
1
1
1
0.999985
0.999969
1.00005
1.00027
1.00026
0.999323
0.997332
0.99619
1.00005
1.01261
1.03198
1.04651
1.03582
0.978504
0.863056
0.695606
0.499518
0.306872
0.146569
0.0351708
-0.0258541
-0.0467059
-0.0427354
-0.0283447
-0.0134594
-0.0028592
0.00259954
0.00414265
0.00353865
0.00222199
0.00101859
0.000231514
-0.000148584
-0.000253365
-0.000220165
-0.000144441
-7.52872e-05
-2.89099e-05
-4.31443e-06
5.41474e-06
7.16452e-06
5.69567e-06
3.58182e-06
1.8729e-06
7.93024e-07
2.27949e-07
-1.12114e-08
-8.01442e-08
-7.72973e-08
-5.38631e-08
-3.12799e-08
-1.5621e-08
-6.58936e-09
-2.11886e-09
-2.56875e-10
3.27273e-10
3.86935e-10
2.86795e-10
1.74054e-10
9.20383e-11
4.29304e-11
1.72914e-11
5.50398e-12
8.505e-13
-5.73733e-13
-7.50878e-13
-5.63312e-13
-3.43629e-13
-1.84039e-13
-8.85374e-14
-3.81815e-14
-1.4328e-14
-4.22755e-15
-5.37954e-16
4.89492e-16
5.73056e-16
4.11532e-16
2.4455e-16
1.29153e-16
6.20879e-17
2.72715e-17
1.07989e-17
3.68817e-18
9.35254e-19
2.9527e-20
-1.78347e-19
-1.66288e-19
-1.10078e-19
-6.23971e-20
-3.19636e-20
-1.50927e-20
-6.59829e-21
-2.65026e-21
-9.52708e-22
-2.84497e-22
-5.27384e-23
2.7649e-23
1
1
1
0.999997
0.999976
0.999981
1.00011
1.00031
1.00015
0.999011
0.997003
0.996291
1.00101
1.0144
1.03386
1.04724
1.03438
0.974882
0.858529
0.692214
0.498988
0.309677
0.151719
0.0407885
-0.0215817
-0.0447794
-0.0431274
-0.0302832
-0.0159325
-0.00504605
0.00112495
0.00343102
0.00340823
0.00241795
0.00132317
0.000509314
4.61715e-05
-0.000144748
-0.000175856
-0.000137878
-8.53824e-05
-4.27506e-05
-1.58788e-05
-2.22085e-06
2.99026e-06
3.86276e-06
3.04977e-06
1.92275e-06
1.02024e-06
4.4916e-07
1.46219e-07
1.31369e-08
-3.00561e-08
-3.39438e-08
-2.51738e-08
-1.53156e-08
-8.0483e-09
-3.65783e-09
-1.37005e-09
-3.41768e-10
3.65683e-11
1.26411e-10
1.1225e-10
7.48325e-11
4.26014e-11
2.14598e-11
9.57982e-12
3.67264e-12
1.07604e-12
1.03061e-13
-1.67956e-13
-1.82494e-13
-1.29753e-13
-7.69489e-14
-4.04802e-14
-1.92454e-14
-8.24324e-15
-3.09148e-15
-9.24338e-16
-1.32816e-16
9.10504e-17
1.13572e-16
8.28338e-17
4.96702e-17
2.64593e-17
1.28578e-17
5.7359e-18
2.32848e-18
8.33148e-19
2.38316e-19
3.19822e-20
-2.3141e-20
-2.76164e-20
-1.96728e-20
-1.16127e-20
-6.13283e-21
-2.97913e-21
-1.34367e-21
-5.63571e-22
-1.77844e-22
1
1
1
1
0.999991
0.999975
1
1.00015
1.00031
1.00004
0.99874
0.996731
0.996387
1.00189
1.01614
1.03583
1.04817
1.03308
0.97113
0.853543
0.68817
0.497884
0.312261
0.157156
0.0471851
-0.016207
-0.0416774
-0.0425131
-0.0315453
-0.0181048
-0.0072514
-0.000571531
0.00241895
0.00299553
0.00240279
0.00150067
0.000730881
0.000231706
-2.14507e-05
-0.000109703
-0.000111657
-8.1539e-05
-4.84168e-05
-2.35801e-05
-8.61815e-06
-1.23829e-06
1.52166e-06
1.98237e-06
1.56968e-06
9.97062e-07
5.38084e-07
2.45747e-07
8.81375e-08
1.63856e-08
-9.20574e-09
-1.38902e-08
-1.11828e-08
-7.16179e-09
-3.95021e-09
-1.90882e-09
-7.92066e-10
-2.57781e-10
-3.91839e-11
3.00486e-11
3.91235e-11
2.97341e-11
1.83812e-11
9.94896e-12
4.81243e-12
2.06741e-12
7.57144e-13
2.03486e-13
5.93725e-15
-4.37862e-14
-4.22733e-14
-2.88583e-14
-1.67378e-14
-8.68258e-15
-4.09218e-15
-1.74605e-15
-6.56685e-16
-2.00027e-16
-3.26367e-17
1.5753e-17
2.17429e-17
1.62191e-17
9.84352e-18
5.29753e-18
2.6041e-18
1.1796e-18
4.89965e-19
1.82405e-19
5.699e-20
1.1511e-20
-2.00488e-21
-4.26271e-21
-3.36978e-21
-2.09017e-21
-1.14124e-21
-5.36111e-22
1
1
1
1
0.999999
0.99999
0.99998
1.00002
1.00017
1.00031
0.999955
0.998503
0.996411
0.996361
1.00272
1.01805
1.03816
1.04943
1.03173
0.966784
0.847509
0.68293
0.495797
0.314358
0.162723
0.0542873
-0.00972557
-0.0373136
-0.0407283
-0.031911
-0.0197374
-0.00925616
-0.00231994
0.00121477
0.00235092
0.00218325
0.00153219
0.00086754
0.000380391
9.53443e-05
-3.52134e-05
-7.27945e-05
-6.63464e-05
-4.60365e-05
-2.65172e-05
-1.26901e-05
-4.63117e-06
-7.33993e-07
7.14937e-07
9.71188e-07
7.78362e-07
5.00314e-07
2.75078e-07
1.30014e-07
5.0376e-08
1.28773e-08
-1.55756e-09
-5.19027e-09
-4.70115e-09
-3.19746e-09
-1.85175e-09
-9.44226e-10
-4.22976e-10
-1.59629e-10
-4.30465e-11
1.38686e-13
1.12499e-11
1.07248e-11
7.36847e-12
4.30188e-12
2.23481e-12
1.04449e-12
4.33834e-13
1.52304e-13
3.74202e-14
-1.73313e-15
-1.05677e-14
-9.40794e-15
-6.22464e-15
-3.54768e-15
-1.82058e-15
-8.52866e-16
-3.63411e-16
-1.37448e-16
-4.281e-17
-7.88921e-18
2.47368e-18
4.01797e-18
3.09128e-18
1.90514e-18
1.03755e-18
5.16304e-19
2.37436e-19
1.00746e-19
3.88148e-20
1.29779e-20
3.24672e-21
1.1512e-22
-5.81734e-22
-6.06e-22
1
1
1
0.999999
0.999999
1
0.999994
0.999977
1.00001
1.00019
1.00037
0.999924
0.998195
0.995887
0.996187
1.00371
1.0205
1.04113
1.05091
1.02984
0.961101
0.839645
0.675821
0.492215
0.315582
0.168122
0.0618649
-0.0022917
-0.0317481
-0.0377313
-0.0312511
-0.0206462
-0.0108623
-0.00394365
-4.83825e-05
0.00155748
0.00179825
0.00142505
0.00090871
0.000474934
0.000188832
3.47055e-05
-2.95843e-05
-4.42308e-05
-3.74035e-05
-2.50018e-05
-1.4095e-05
-6.68272e-06
-2.46364e-06
-4.46513e-07
3.07746e-07
4.54711e-07
3.72409e-07
2.43242e-07
1.36445e-07
6.65939e-08
2.74846e-08
8.47417e-09
6.80919e-10
-1.68885e-09
-1.85393e-09
-1.3603e-09
-8.30033e-10
-4.45025e-10
-2.12132e-10
-8.83679e-11
-2.9982e-11
-6.00529e-12
1.92066e-12
3.35754e-12
2.71149e-12
1.73362e-12
9.6752e-13
4.85839e-13
2.20504e-13
8.89206e-14
3.00324e-14
6.73014e-15
-8.80716e-16
-2.40824e-15
-2.0231e-15
-1.30659e-15
-7.34597e-16
-3.73944e-16
-1.74506e-16
-7.44128e-17
-2.83645e-17
-9.05404e-18
-1.86444e-18
3.31316e-19
7.15151e-19
5.73604e-19
3.60333e-19
1.98938e-19
1.00292e-19
4.68208e-20
2.02667e-20
8.04587e-21
2.85912e-21
5.43745e-22
1
1
1
0.999999
0.999997
1
1.00001
0.999989
0.999944
1
1.00029
1.00052
0.999847
0.997629
0.995075
0.99606
1.00531
1.02389
1.04476
1.05217
1.02656
0.953087
0.829031
0.666105
0.486563
0.315466
0.172942
0.0695495
0.00579142
-0.0251885
-0.0336164
-0.0295506
-0.0207332
-0.0119258
-0.00529056
-0.00123856
0.000712143
0.00130729
0.00120735
0.0008609
0.000509966
0.000249201
9.03635e-05
1.04882e-05
-2.00475e-05
-2.51728e-05
-2.01887e-05
-1.31314e-05
-7.29649e-06
-3.44976e-06
-1.29557e-06
-2.70482e-07
1.18442e-07
2.03308e-07
1.72044e-07
1.14681e-07
6.57254e-08
3.30649e-08
1.43868e-08
5.0295e-09
9.84856e-10
-4.12204e-10
-6.73869e-10
-5.48959e-10
-3.55647e-10
-2.0044e-10
-1.00863e-10
-4.52375e-11
-1.75116e-11
-5.22238e-12
-5.48963e-13
7.91533e-13
8.8908e-13
6.45839e-13
3.91088e-13
2.10452e-13
1.02716e-13
4.54653e-14
1.78691e-14
5.82926e-15
1.19156e-15
-2.65663e-16
-5.24281e-16
-4.22169e-16
-2.67632e-16
-1.48908e-16
-7.53643e-17
-3.51013e-17
-1.50045e-17
-5.77362e-18
-1.89086e-18
-4.29685e-19
3.00958e-20
1.22076e-19
1.03581e-19
6.66239e-20
3.73643e-20
1.91007e-20
9.07078e-21
3.53643e-21
1
1
1
1
0.999996
1
1.00002
1.00001
0.999949
0.999895
1.00006
1.00051
1.00068
0.999516
0.99666
0.994119
0.996435
1.00801
1.02838
1.04867
1.05228
1.02071
0.941585
0.814717
0.653059
0.478278
0.313517
0.176706
0.0768818
0.0141104
-0.0179636
-0.0286004
-0.026909
-0.0199968
-0.0123756
-0.00625529
-0.0022467
-9.28101e-05
0.000776649