/*--------------------------------*- C++ -*----------------------------------*\
  =========                 |
  \\      /  F ield         | OpenFOAM: The Open Source CFD Toolbox
   \\    /   O peration     | Website:  https://openfoam.org
    \\  /    A nd           | Version:  7
     \\/     M anipulation  |
\*---------------------------------------------------------------------------*/
FoamFile
{
    version     2.0;
    format      ascii;
    class       volScalarField;
    location    "0.4";
    object      T;
}
// * * * * * * * * * * * * * * * * * * * * * * * * * * * * * * * * * * * * * //

dimensions      [0 0 0 1 0 0 0];

internalField   nonuniform List<scalar> 
46572
(
0
0
0
0
0
0
0
0
0
0
0
0
0
0
0
0
0
0
0
0
0
0
0
0
0
0
0
0
0
0
0
0
0
0
0
0
0
0
0
0
0
0
0
0
0
0
0
0
0
0
0
0
0
0
0
0
0
0
0
0
0
0
0
0
0
0
0
0
0
0
0
0
0
0
0
0
0
0
0
0
0
0
0
0
0
0
0
0
0
0
0
0
0
0
0
0
0
0
0
0
0
0
0
0
0
0
0
0
0
0
0
0
0
0
0
0
0
0
0
0
0
0
0
0
0
0
0
0
0
0
0
0
0
0
0
0
0
0
0
0
0
0
0
0
0
0
0
0
0
0
0
0
0
0
0
0
0
0
0
0
0
0
0
0
0
0
0
0
0
0
0
0
0
0
0
0
0
0
0
0
0
0
0
0
0
0
0
0
0
0
0
0
0
0
0
0
0
0
0
0
0
0
0
0
0
0
0
0
0
0
0
0
0
0
0
0
0
0
0
0
0
0
0
0
0
0
0
0
0
0
0
0
0
0
0
0
0
0
0
0
0
0
0
0
0
0
0
0
0
0
0
0
0
0
0
0
0
0
0
0
0
0
0
0
0
0
0
0
0
0
0
0
0
0
0
0
0
0
0
0
0
0
0
0
0
0
0
0
0
0
0
0
0
0
0
-5.31713e-142
-6.64641e-142
-3.43141e-142
-4.31755e-142
-1.48516e-140
5.08081e-140
7.78384e-139
1.20578e-138
-5.98473e-137
-5.85998e-137
-8.2126e-135
-6.64076e-135
-4.38626e-134
5.75974e-134
-8.38071e-132
-9.09207e-132
-2.36571e-130
-2.5406e-130
-1.57971e-130
-1.70053e-130
-1.43759e-130
-1.32014e-130
-1.1854e-128
-1.42018e-128
-7.68098e-129
-9.25982e-129
-4.84253e-129
-5.7189e-129
2.4187e-128
7.94832e-129
-4.69475e-126
5.24467e-126
-2.09637e-123
9.52362e-125
-4.00204e-123
6.88418e-124
-4.34881e-121
-3.46911e-121
-1.10708e-120
-1.22088e-120
-7.12414e-121
-7.65342e-121
-1.34063e-120
2.53545e-120
-1.07666e-119
-6.86078e-120
-2.64504e-119
-1.4444e-119
-8.39729e-119
-2.95281e-119
-8.49688e-119
2.3945e-119
-6.13584e-118
-6.2459e-118
-4.03748e-118
-4.07055e-118
-2.85581e-118
-1.96226e-118
-3.87551e-118
-3.78459e-118
-2.61859e-118
-2.52037e-118
-1.96145e-118
-8.58291e-119
-8.80368e-118
-1.10328e-117
-8.42547e-118
-1.45539e-117
1.05612e-116
-4.01217e-116
8.20857e-116
4.14224e-117
1.14843e-115
6.33346e-116
1.81005e-115
-7.36001e-116
3.50753e-115
-5.13955e-115
2.47574e-114
2.50728e-114
4.57486e-114
-8.84241e-114
1.00091e-113
1.54997e-114
7.44149e-114
1.88683e-114
7.76272e-114
-1.17892e-113
4.0713e-113
-1.3638e-112
3.97921e-112
6.1368e-113
2.37203e-111
2.09074e-111
7.85122e-111
6.1095e-111
5.58976e-111
4.22711e-111
4.03495e-111
2.71724e-111
1.38209e-110
6.17647e-111
2.40476e-110
2.2449e-110
1.60118e-110
1.42729e-110
1.48651e-110
-3.87718e-111
3.07564e-110
1.1539e-110
2.98824e-110
2.41849e-111
2.53328e-110
-1.46377e-111
3.95008e-110
-5.87203e-110
5.97251e-109
3.53485e-109
6.44605e-108
1.72045e-108
4.90501e-108
1.47511e-108
3.7884e-108
1.25458e-108
2.98198e-108
8.29077e-109
1.65233e-107
5.86898e-108
3.16724e-107
2.81753e-107
2.11833e-107
1.77787e-107
2.04922e-107
-8.57477e-108
4.86336e-107
9.46488e-108
6.04396e-107
3.64799e-107
6.95074e-107
1.70468e-107
8.99932e-107
-1.19276e-106
1.51141e-106
5.87489e-108
3.63045e-106
2.86034e-107
2.85125e-106
6.43393e-107
3.70786e-106
2.72174e-106
2.6368e-106
1.86752e-106
2.08268e-106
7.98375e-107
9.69415e-106
8.72184e-106
6.43043e-106
5.35311e-106
7.22683e-106
-6.23662e-106
1.60736e-105
2.01531e-106
1.86682e-105
1.0524e-105
1.70351e-105
8.61684e-106
1.49835e-105
-2.66447e-106
1.77232e-105
4.49196e-106
1.80165e-105
-1.06279e-105
2.13159e-105
4.17419e-106
2.11012e-105
1.1268e-105
1.57841e-105
6.6611e-106
1.39865e-105
8.14637e-106
1.53688e-105
1.04043e-105
4.09754e-105
-5.27882e-105
1.26668e-104
7.97074e-105
1.07539e-104
6.19222e-107
8.84048e-105
6.7547e-106
3.52125e-104
7.86422e-105
6.18531e-104
5.15215e-104
4.19887e-104
3.32309e-104
3.27683e-104
1.09521e-104
4.20832e-104
2.28439e-104
5.97493e-104
2.14728e-104
1.35796e-103
2.80828e-104
1.28687e-103
-5.85695e-104
1.06932e-103
-1.97389e-104
9.76389e-104
-4.99791e-104
8.40818e-104
-2.37472e-104
1.50801e-103
2.10013e-104
1.19771e-103
3.02391e-104
3.51809e-103
1.22808e-103
5.8473e-103
5.00319e-103
3.94342e-103
3.21193e-103
3.15573e-103
6.96449e-104
4.24422e-103
1.6846e-103
4.32493e-103
2.87445e-103
3.51978e-103
1.89506e-103
2.98527e-103
5.54582e-104
6.09393e-103
5.01409e-103
4.20962e-103
3.31791e-103
3.59907e-103
2.8865e-103
5.71032e-103
4.68664e-103
3.96598e-103
3.2466e-103
2.84313e-103
1.8125e-103
5.69831e-103
5.39948e-103
3.75992e-103
3.45455e-103
2.77495e-103
1.45154e-103
2.77554e-103
1.60192e-103
2.48813e-103
1.81985e-103
1.84844e-103
1.30828e-103
1.43939e-103
6.96056e-104
2.29673e-103
2.19494e-103
1.65833e-103
9.77002e-104
1.63415e-103
1.08351e-103
1.2329e-103
8.60549e-104
8.76523e-104
5.76642e-104
6.22296e-104
3.82084e-104
8.88244e-104
7.00054e-104
1.86667e-103
7.22999e-104
1.39252e-103
5.27626e-104
-2.50329e-103
3.7991e-104
3.4596e-99
-4.79515e-100
2.3807e-97
5.43953e-97
-7.6731e-95
-8.35715e-95
-3.9919e-94
2.59387e-94
-2.26883e-92
6.86809e-92
1.51481e-91
-4.32015e-91
-1.46616e-88
2.64307e-89
3.71873e-85
-3.24947e-86
8.31594e-83
3.64512e-83
3.36818e-81
3.669e-81
1.3244e-80
1.92114e-81
8.48045e-79
-2.09065e-14
-9.91737e-15
7.71722e-17
-1.76168e-19
-1.48346e-20
6.0203e-23
-7.84083e-25
6.00906e-27
1.15602e-28
-1.76054e-30
2.86822e-32
-1.313e-34
2.10039e-37
4.21201e-39
-5.03216e-41
2.16434e-43
-1.60618e-46
-5.85202e-48
4.83095e-50
5.07445e-53
-3.46577e-56
-2.83782e-56
1.5792e-58
7.11412e-61
-5.49829e-63
-1.9595e-65
-1.29621e-67
4.20942e-70
4.71607e-72
7.00147e-75
-2.47832e-14
0.00020752
0.00285684
0.00921885
0.0210619
0.0397912
0.0651256
0.0933719
0.125451
0.155258
0.180273
0.196945
0.206319
0.203393
0.188751
0.163844
0.131893
0.0932043
0.0544668
0.0159771
-0.0172819
-0.044344
-0.0638689
-0.0707389
-0.0762182
-0.0733722
-0.0663681
-0.0579631
-0.0496096
-0.0401748
-0.0315859
-0.0238468
-0.0184534
-0.0137482
-0.00981866
-0.00690656
-0.00485327
-0.0034073
-0.00231139
-0.0015133
-0.00100658
-0.000647238
-0.000413805
-0.00026215
-0.000158714
-0.000100457
-6.19485e-05
-3.74321e-05
-2.2755e-05
-1.36266e-05
-7.95552e-06
-4.62769e-06
-2.72152e-06
-1.60319e-06
-9.18608e-07
-5.13851e-07
-2.93324e-07
-1.63095e-07
-9.00225e-08
-4.99859e-08
-2.66905e-08
-1.48635e-08
-8.09011e-09
-4.33667e-09
-2.31879e-09
-1.24967e-09
-6.7468e-10
-3.57846e-10
-1.83712e-10
-9.75894e-11
-5.04738e-11
-2.58271e-11
-1.32012e-11
-6.84e-12
-3.45412e-12
-1.74766e-12
-8.69282e-13
-4.44164e-13
-2.2178e-13
-1.1363e-13
-4.56549e-14
-2.88303e-14
7.27764e-07
-1.32924e-06
5.70038e-07
9.06299e-07
-7.49954e-06
5.16691e-07
2.24173e-05
-3.35012e-05
-0.000229095
-0.000372662
-0.000218417
-0.00061921
1.03308e-06
-7.02324e-08
-3.09506e-07
-2.51596e-07
-2.38891e-07
-1.83924e-07
-1.65819e-07
5.2199e-08
-4.39915e-07
4.86537e-07
-2.18131e-06
1.12082e-06
-1.23011e-06
-5.53797e-07
1.68915e-06
-2.55171e-06
-1.88885e-06
2.63081e-07
-9.44364e-07
2.56397e-06
1.62334e-06
2.61939e-06
3.03855e-06
-3.01377e-06
1.11947e-06
-9.55958e-06
-5.23472e-06
-1.2854e-05
-1.01783e-05
-7.67626e-06
-1.16052e-05
6.50508e-06
-3.52286e-06
1.96448e-05
7.04024e-06
2.28624e-05
1.38782e-05
-9.84985e-07
5.30316e-06
-5.77027e-05
-3.82336e-05
-0.000131703
-0.000131586
-0.000178574
-0.000288164
-0.000183235
-0.000482212
2.26575e-05
-0.000640432
0.000230367
-0.000460042
0.00097547
-0.000437058
0.00232561
-6.71858e-05
0.00452375
0.000673625
0.00782803
0.0019719
0.0123468
0.00393462
0.018319
0.00659903
0.0256172
0.0102782
0.0348864
0.014493
0.0451886
0.0200402
0.0566873
0.0256744
0.069264
0.0316481
0.0827778
0.0388613
0.0964964
0.0458634
0.111648
0.0533536
0.125477
0.0606226
0.137897
0.065767
0.151202
0.0715095
0.160959
0.0747616
0.1695
0.0759977
0.17792
0.0771254
0.180772
0.0759933
0.185101
0.0736767
0.186438
0.0723212
0.183676
0.0671232
0.179361
0.0591337
0.171137
0.0503552
0.16262
0.0397015
0.149717
0.0287447
0.13555
0.0143901
0.11948
0.00186903
0.10226
-0.0131212
0.0845289
-0.0282037
0.0655842
-0.0420534
0.0466406
-0.055791
0.0296936
-0.0695642
0.0114185
-0.0812406
-0.00522146
-0.0920336
-0.0200065
-0.101587
-0.0327175
-0.108753
-0.0434739
-0.115462
-0.0538414
-0.119038
-0.0596656
-0.121318
-0.0683584
-0.12209
-0.0701557
-0.120903
-0.0716587
-0.117948
-0.0738157
-0.115123
-0.0740118
-0.110923
-0.0709471
-0.105005
-0.0705517
-0.099329
-0.066099
-0.0921911
-0.0612004
-0.0849362
-0.0579153
-0.078278
-0.0522827
-0.0704858
-0.0481773
-0.0642487
-0.0445891
-0.0584747
-0.0402297
-0.0523848
-0.0361083
-0.0465661
-0.0316679
-0.0409563
-0.0282366
-0.0361473
-0.025032
-0.0316884
-0.0214838
-0.0273363
-0.0189939
-0.0237903
-0.0161305
-0.0202821
-0.0137208
-0.0172302
-0.011882
-0.0147309
-0.00984036
-0.0123061
-0.00839106
-0.0104459
-0.00717074
-0.00888601
-0.00602622
-0.0074508
-0.00504573
-0.00621874
-0.00417776
-0.00515096
-0.00346437
-0.00427858
-0.00287525
-0.00353574
-0.00234223
-0.00288935
-0.00195807
-0.00238607
-0.00157318
-0.00193019
-0.00127218
-0.00156031
-0.00104245
-0.00127427
-0.00084932
-0.00103527
-0.000674362
-0.000826646
-0.000549161
-0.000668441
-0.000440245
-0.000535544
-0.000352054
-0.000428021
-0.000278882
-0.000340002
-0.000222163
-0.000270878
-0.000177107
-0.000215402
-0.0001391
-0.000169468
-0.000111422
-0.000134697
-8.61316e-05
-0.000104746
-6.69776e-05
-8.15416e-05
-5.28947e-05
-6.42095e-05
-4.15607e-05
-5.03731e-05
-3.19136e-05
-3.88474e-05
-2.51131e-05
-3.04213e-05
-1.9194e-05
-2.33417e-05
-1.47093e-05
-1.79107e-05
-1.14619e-05
-1.38792e-05
-8.62461e-06
-1.05086e-05
-6.6707e-06
-8.118e-06
-5.17439e-06
-6.29318e-06
-3.96492e-06
-4.82211e-06
-3.03326e-06
-3.6854e-06
-2.29594e-06
-2.79595e-06
-1.7544e-06
-2.13763e-06
-1.34234e-06
-1.63105e-06
-1.00184e-06
-1.22363e-06
-7.69464e-07
-9.33303e-07
-5.72641e-07
-6.97883e-07
-4.28668e-07
-5.22775e-07
-3.25914e-07
-3.96865e-07
-2.44713e-07
-2.98079e-07
-1.81095e-07
-2.21218e-07
-1.36976e-07
-1.66836e-07
-1.02401e-07
-1.24762e-07
-7.65512e-08
-9.31914e-08
-5.67946e-08
-6.92748e-08
-4.23026e-08
-5.16334e-08
-3.15816e-08
-3.84822e-08
-2.32405e-08
-2.83724e-08
-1.74219e-08
-2.11954e-08
-1.27158e-08
-1.55184e-08
-9.32383e-09
-1.13861e-08
-6.92465e-09
-8.44337e-09
-5.12959e-09
-6.24978e-09
-3.72332e-09
-4.55146e-09
-2.75845e-09
-3.3643e-09
-2.01915e-09
-2.46371e-09
-1.4778e-09
-1.80261e-09
-1.07617e-09
-1.31373e-09
-7.85208e-10
-9.60238e-10
-5.74279e-10
-7.01173e-10
-4.13018e-10
-5.04827e-10
-2.96344e-10
-3.6232e-10
-2.17068e-10
-2.6525e-10
-1.58004e-10
-1.93102e-10
-1.15207e-10
-1.40808e-10
-8.38576e-11
-1.024e-10
-5.97835e-11
-7.32206e-11
-4.36069e-11
-5.32274e-11
-3.10482e-11
-3.79588e-11
-2.21125e-11
-2.70925e-11
-1.59877e-11
-1.95428e-11
-1.12467e-11
-1.37793e-11
-8.09951e-12
-9.92274e-12
-5.85635e-12
-7.17176e-12
-4.19195e-12
-5.13679e-12
-2.99882e-12
-3.67358e-12
-2.13561e-12
-2.61908e-12
-1.52394e-12
-1.87035e-12
-1.09111e-12
-1.33633e-12
-7.66768e-13
-9.41451e-13
-5.51069e-13
-6.75144e-13
-3.89892e-13
-4.78327e-13
-2.77447e-13
-3.39924e-13
-1.98352e-13
-2.42192e-13
-1.38965e-13
-1.69346e-13
-9.46319e-14
-1.16015e-13
-6.74418e-14
-8.3296e-14
-5.23995e-14
-3.47134e-14
-6.2314e-14
6.7794e-36
-3.09897e-33
1.9788e-30
-1.29215e-28
1.57621e-25
-2.25581e-23
3.54057e-22
-4.32368e-20
1.25693e-17
5.00113e-16
-1.22096e-15
1.54742e-15
-5.09717e-15
0
0
0
0
0
0
0
0
0
1.08273e-34
1.42356e-33
3.08592e-30
-2.74866e-30
-7.25938e-29
3.33044e-28
9.1269e-28
1.05557e-26
2.87837e-27
5.98999e-27
5.12431e-27
2.13399e-26
9.18838e-27
2.78327e-26
3.17667e-26
2.62202e-26
-4.06821e-27
-4.29303e-26
-6.34697e-26
-5.76153e-26
-5.09917e-26
-2.72319e-26
-1.53298e-26
-1.29281e-26
-1.00275e-26
-4.14147e-27
1.91883e-28
4.07543e-27
3.3065e-27
2.42701e-27
1.79671e-27
1.1885e-27
6.16261e-28
2.58535e-28
-3.80872e-29
-2.15596e-28
-3.15526e-28
-2.3044e-28
-1.59735e-28
4.44385e-29
2.39755e-28
2.99849e-28
2.57342e-28
1.16894e-28
7.79408e-29
-1.3543e-29
-2.12013e-29
-3.66663e-29
-3.38154e-29
-2.51573e-29
-1.63764e-29
-9.04734e-30
-5.46449e-30
-3.52744e-30
-2.02112e-30
-1.08371e-30
-1.80812e-32
9.60098e-33
3.38926e-32
2.07739e-31
1.258e-31
1.17487e-31
7.71634e-32
5.68189e-32
3.54214e-32
2.35126e-32
1.54478e-32
6.86374e-33
3.53252e-33
1.94195e-33
7.87708e-34
1.47155e-34
-4.20977e-34
-2.68511e-34
-2.03881e-34
-1.56182e-34
-9.38633e-35
-5.79956e-35
-3.3687e-35
-1.84859e-35
-1.04523e-35
-5.67713e-36
-2.48216e-36
-1.34756e-36
-6.93396e-37
-3.79731e-37
-1.76495e-37
-6.80619e-38
4.35405e-39
3.47351e-39
-4.19635e-36
1.05145e-78
-3.79643e-18
-3.58143e-18
-4.78285e-16
3.50039e-17
1.62511e-16
-8.08648e-19
1.38349e-19
-2.99591e-22
1.24871e-23
-1.37863e-25
5.90638e-28
-1.05602e-29
1.07188e-33
6.47788e-34
-1.7217e-35
9.74228e-38
1.91768e-40
-6.71804e-42
5.28336e-44
-2.69112e-46
6.83615e-49
1.13364e-51
1.17789e-53
-2.37622e-55
-8.1403e-58
1.99748e-59
-3.99256e-62
-3.14749e-64
-1.6778e-66
-3.89142e-69
6.3014e-71
2.24999e-73
-2.44051e-07
1.33469e-76
0.001127
0.0054697
0.0143934
0.0296377
0.0510876
0.0786273
0.109097
0.139203
0.166422
0.190957
0.201544
0.204122
0.197585
0.177868
0.1495
0.113714
0.0749653
0.0330606
-0.00209213
-0.03161
-0.0529867
-0.065646
-0.0740482
-0.0727976
-0.0685431
-0.0636515
-0.0529413
-0.0435127
-0.0352334
-0.0269931
-0.0210763
-0.0157121
-0.011343
-0.0084035
-0.00580192
-0.00407776
-0.00276063
-0.00182858
-0.00124316
-0.000789858
-0.000504282
-0.000325338
-0.000202263
-0.000126738
-7.94166e-05
-4.74053e-05
-2.95455e-05
-1.73918e-05
-1.01905e-05
-6.16447e-06
-3.55386e-06
-2.09282e-06
-1.19638e-06
-6.73023e-07
-3.90464e-07
-2.14277e-07
-1.18901e-07
-6.63638e-08
-3.62599e-08
-1.98978e-08
-1.10411e-08
-5.82757e-09
-3.22102e-09
-1.70209e-09
-9.1902e-10
-4.85404e-10
-2.51671e-10
-1.33714e-10
-6.91649e-11
-3.55518e-11
-1.873e-11
-9.45425e-12
-4.78245e-12
-2.43052e-12
-1.21143e-12
-6.20307e-13
-3.08954e-13
-1.57265e-13
-8.53413e-14
4.01125e-07
9.89231e-07
-1.26792e-06
2.81402e-06
-3.54948e-06
-6.29398e-06
1.58205e-05
1.28904e-05
-0.000122844
-0.000333313
-0.000604799
7.86544e-07
-3.98221e-07
-2.94629e-07
-2.93395e-07
-1.96177e-07
-1.81246e-07
-2.16374e-07
-6.49385e-07
8.80557e-07
8.07405e-27
-5.38878e-07
5.93368e-32
-5.27182e-29
-2.82181e-27
7.62418e-25
3.36612e-23
-2.17006e-21
-1.23024e-19
-2.05459e-16
3.14918e-30
0
0
0
0
0
0
0
0
0
2.72498e-34
2.28625e-31
-2.85302e-30
-1.79204e-29
-8.10288e-29
1.51288e-27
2.19668e-27
5.03457e-27
9.68159e-27
7.3532e-27
1.64044e-26
3.07403e-27
2.82284e-26
2.97809e-26
4.48269e-26
1.09243e-26
-2.55635e-26
-4.12209e-26
-8.12591e-26
-6.27988e-26
-4.23655e-26
-2.73569e-26
-1.3356e-26
-1.23583e-26
-6.90915e-27
-9.44166e-28
1.5645e-27
3.65919e-27
3.2054e-27
2.02848e-27
1.5688e-27
9.42345e-28
4.55743e-28
1.41344e-28
-1.17941e-28
-3.04046e-28
-3.23053e-28
-1.91265e-28
-7.989e-29
1.52304e-28
2.64328e-28
2.65947e-28
2.25998e-28
1.1838e-28
4.49948e-29
-2.45541e-29
-2.99175e-29
-3.7578e-29
-3.05748e-29
-1.8933e-29
-1.38279e-29
-6.76115e-30
-4.37351e-30
-2.60073e-30
-1.38392e-30
-7.54104e-31
-2.6806e-32
6.11684e-33
6.82077e-32
1.67642e-31
1.04675e-31
9.77619e-32
7.13394e-32
4.71546e-32
3.11756e-32
1.87006e-32
1.2364e-32
4.74342e-33
2.74015e-33
1.17352e-33
2.90915e-34
2.52924e-35
-3.08519e-34
-2.51722e-34
-1.68075e-34
-1.17513e-34
-7.16566e-35
-4.47389e-35
-2.46191e-35
-1.42317e-35
-7.94791e-36
-4.18712e-36
-1.85946e-36
-9.51646e-37
-5.21344e-37
-2.51462e-37
-9.79307e-38
-3.77814e-38
1.26802e-38
9.46863e-37
4.21155e-78
0
2.9918e-23
-2.9119e-25
1.09967e-27
-1.66068e-29
-7.59555e-32
1.88259e-33
-3.7844e-35
1.81584e-37
6.03747e-40
-1.41562e-41
1.08038e-43
-5.27699e-46
1.26927e-48
2.33807e-51
2.74579e-53
-4.47132e-55
-1.99871e-57
4.06466e-59
-7.1722e-62
-6.20694e-64
-3.55613e-66
-9.14158e-69
1.25099e-70
4.83532e-73
3.66343e-76
0.00102382
0.00490448
0.0124214
0.0238638
0.0384467
0.0538318
0.0690166
0.0804509
0.0897075
0.0865786
0.0794481
0.0653693
0.0409297
0.0149937
-0.015448
-0.0472684
-0.0747538
-0.0986183
-0.117284
-0.127278
-0.128624
-0.125362
-0.115851
-0.102395
-0.0895374
-0.0732819
-0.0592822
-0.0470792
-0.0358228
-0.0273191
-0.0202864
-0.0145736
-0.0105911
-0.00731305
-0.00512352
-0.00347478
-0.00230083
-0.00154935
-0.000991294
-0.000633136
-0.000404682
-0.000252597
-0.000156968
-9.81843e-05
-5.89312e-05
-3.63976e-05
-2.15417e-05
-1.2636e-05
-7.59106e-06
-4.37946e-06
-2.58171e-06
-1.48076e-06
-8.34549e-07
-4.82137e-07
-2.65948e-07
-1.4729e-07
-8.21783e-08
-4.5009e-08
-2.46288e-08
-1.36492e-08
-7.23966e-09
-3.97699e-09
-2.10197e-09
-1.13655e-09
-6.01288e-10
-3.12631e-10
-1.65557e-10
-8.57914e-11
-4.414e-11
-2.31745e-11
-1.17046e-11
-5.94089e-12
-3.02169e-12
-1.50922e-12
-7.70558e-13
-3.8491e-13
-1.95458e-13
-1.04265e-13
-1.64241e-06
2.16662e-06
-2.38838e-07
-6.46615e-06
7.49158e-06
2.67676e-05
-4.31401e-05
-0.000298164
-1.91643e-07
-5.78367e-07
-4.04291e-07
-4.58136e-07
-4.34224e-07
-4.33052e-07
-4.4659e-07
-1.59054e-07
-8.0242e-07
2.08717e-07
-3.39285e-07
3.2561e-25
-5.19246e-23
6.38902e-22
-8.23642e-20
2.06689e-17
0
0
0
0
0
0
0
0
3.42627e-34
-5.75409e-31
1.47881e-29
3.41417e-29
-4.31448e-28
-3.49612e-27
-1.75877e-26
3.26173e-27
-1.14593e-26
4.97691e-26
-2.75162e-26
-2.24865e-27
-6.84097e-26
-5.3652e-26
-1.11391e-26
7.47162e-26
9.82567e-26
1.09372e-25
6.28578e-26
4.46544e-26
4.18733e-26
1.39947e-26
2.66699e-26
1.118e-26
3.31352e-27
6.25886e-28
-2.89466e-27
7.45842e-30
-4.92467e-28
-8.79945e-28
-2.78765e-28
-4.55264e-29
1.26639e-28
3.8502e-28
2.33188e-28
3.11735e-28
1.56419e-28
-3.74101e-29
-3.74093e-28
-4.35947e-28
-3.6801e-28
-1.94952e-28
-1.43012e-29
-7.09182e-29
5.29236e-29
6.30619e-31
2.8424e-29
1.10827e-29
-1.19584e-30
-1.1652e-30
-1.59037e-31
1.60911e-30
1.32563e-30
8.85413e-31
9.24413e-31
-2.66623e-31
3.85662e-31
2.06804e-31
-1.60515e-32
1.43729e-31
4.8998e-32
1.37329e-32
-3.23739e-33
-2.49006e-33
-4.28318e-33
-3.78989e-33
5.80544e-34
-2.87905e-33
-2.91036e-34
-7.00624e-36
-3.17483e-34
5.47359e-35
-3.72451e-34
-2.0617e-34
-7.96366e-35
-8.2386e-35
-3.55253e-35
-2.44887e-35
-1.3195e-35
-5.80435e-36
-3.77257e-36
-1.52021e-36
-3.22639e-37
-1.79597e-37
-1.52859e-37
-6.68332e-38
-4.41954e-39
-4.18692e-38
-1.10015e-38
-3.89414e-37
2.80331e-28
-3.78928e-30
5.88569e-32
-2.17888e-34
1.18614e-37
8.99248e-39
-8.75543e-41
3.14857e-43
2.1011e-46
-1.34638e-47
9.04971e-50
1.17304e-52
3.91944e-55
-5.83188e-56
3.07977e-58
1.49752e-60
-1.05562e-62
-3.83517e-65
-2.65007e-67
7.6781e-70
9.66123e-72
1.63117e-74
6.20208e-05
0.0026925
0.00811647
0.0177768
0.0309088
0.0458177
0.0622305
0.0758904
0.085505
0.0888133
0.0856191
0.0742296
0.0554521
0.0287185
0.00129922
-0.030146
-0.0610137
-0.0877044
-0.108917
-0.123898
-0.12948
-0.127296
-0.121937
-0.110238
-0.0962473
-0.0808681
-0.0668906
-0.0532439
-0.0414675
-0.0312035
-0.0237189
-0.0174396
-0.0124431
-0.00875496
-0.00612544
-0.00426627
-0.00287071
-0.00189084
-0.00125167
-0.000803431
-0.000510131
-0.000324085
-0.000197429
-0.000124382
-7.64995e-05
-4.63318e-05
-2.80841e-05
-1.67521e-05
-9.8058e-06
-5.72465e-06
-3.36167e-06
-1.97605e-06
-1.12914e-06
-6.35007e-07
-3.61767e-07
-2.00703e-07
-1.10867e-07
-6.16703e-08
-3.30865e-08
-1.83774e-08
-9.99885e-09
-5.36995e-09
-2.87333e-09
-1.54456e-09
-8.34439e-10
-4.41219e-10
-2.27492e-10
-1.20608e-10
-6.23916e-11
-3.20355e-11
-1.63518e-11
-8.46025e-12
-4.2753e-12
-2.1653e-12
-1.07938e-12
-5.50858e-13
-2.75513e-13
-1.40728e-13
1.4368e-07
1.66294e-07
3.23811e-06
-2.74868e-06
-1.84678e-06
2.36151e-05
1.03985e-05
-0.000145353
-0.000466938
-4.41195e-07
-4.11652e-07
-4.06898e-07
-4.26722e-07
-4.2841e-07
-5.06298e-07
-7.53534e-07
1.68024e-07
9.28303e-32
-1.18528e-28
-2.05139e-27
1.29626e-24
1.24308e-22
-6.19509e-21
-9.21199e-21
-4.76924e-16
0
0
0
0
0
0
0
1.35657e-34
9.56412e-33
-2.14742e-30
2.92033e-29
7.43521e-29
-1.81685e-27
7.01506e-28
-1.8123e-26
1.86166e-27
-4.98988e-27
-1.80716e-26
-4.63547e-26
-3.19288e-26
-6.71714e-26
-5.58408e-26
8.76761e-27
4.61635e-26
9.13824e-26
9.47084e-26
6.09745e-26
3.28213e-26
1.89466e-26
2.59124e-26
1.18467e-26
2.54509e-27
-2.25121e-27
-2.12707e-27
1.01223e-27
-6.17275e-28
-5.55292e-28
-6.5989e-28
-1.9265e-28
-1.7598e-28
1.04183e-28
4.2125e-28
2.34807e-28
2.99933e-28
1.13847e-28
-1.04892e-28
-3.3961e-28
-3.36851e-28
-2.12811e-28
-7.35003e-29
-1.03771e-28
6.37571e-29
8.46304e-30
1.45809e-29
2.28448e-29
5.34355e-31
-2.28286e-30
1.01667e-30
9.97947e-31
9.94715e-31
5.65132e-31
6.13147e-31
-2.95037e-31
5.32906e-31
3.02307e-31
1.98624e-32
2.1092e-31
9.41735e-32
2.93915e-32
-3.2119e-33
7.20894e-34
-2.85586e-33
-2.19772e-33
2.95528e-34
-1.68465e-33
-1.5298e-34
5.26268e-34
1.0241e-34
3.14019e-35
-5.41868e-34
-1.84354e-34
-7.60619e-35
-1.09312e-34
-4.6971e-35
-3.22084e-35
-1.96717e-35
-7.91101e-36
-5.13411e-36
-2.36421e-36
-3.0435e-37
-2.69031e-37
-1.5104e-37
-1.2634e-37
-4.48483e-38
-2.39344e-38
3.39689e-39
-6.50126e-38
3.32134e-19
-1.27995e-24
7.93934e-23
-2.90291e-20
-8.79445e-22
-1.75962e-07
-0.000461045
1.35636e-06
-5.92438e-07
-3.24449e-33
-1.29796e-28
0
0
0
0
0
0
0
0
0
0
0
0
0
0
0
0
0
0
0
0
0
0
0
0
0
0
0
0
0
0
0
0
0
0
0
0
0
0
0
0
0
0
0
0
0
0
0
0
0
0
0
0
0
0
0
0
0
0
0
0
0
0
0
0
0
0
0
0
0
0
0
0
0
0
0
0
0
0
0
0
0
0
0
0
0
0
0
0
0
0
0
0
0
0
0
0
0
0
0
0
0
0
0
0
0
0
0
0
0
0
0
0
0
0
0
0
0
0
0
0
0
0
0
0
0
0
0
0
0
0
0
0
0
0
0
0
0
0
0
0
0
0
0
0
0
0
0
0
0
0
0
0
0
0
0
0
0
0
0
0
0
0
0
0
0
0
0
0
0
0
0
0
0
0
0
0
0
0
0
0
0
0
0
0
0
0
0
0
0
0
0
0
0
0
0
0
0
9.39973e-08
0
0
0
0
0
0
0
0
0
0
0
0
0
0
0
0
0
0
0
0
0
0
0
0
0
0
0
0
0
0
0
0
0
0
0
0
0
0
0
0
0
0
0
0
0
0
0
0
0
0
0
0
0
0
0
0
0
0
0
0
0
0
0
0
0
0
0
0
0
0
0
0
0
0
0
0
0
0
0
0
0
0
0
0
0
0
0
0
0
0
0
0
0
0
-2.4525e-140
-3.05408e-140
-1.49037e-139
-2.02706e-140
8.80491e-137
1.17186e-136
1.84025e-136
2.4898e-136
-6.07372e-135
1.149e-135
-4.29217e-132
-2.55753e-132
-7.43034e-131
-8.51595e-131
-3.69682e-130
-2.61802e-130
-2.44621e-128
-2.53451e-128
-1.63384e-128
-1.50233e-128
-1.79411e-128
8.67308e-129
-8.98069e-127
-1.10287e-126
-1.29684e-126
2.83407e-126
-1.73925e-126
2.78443e-126
1.06669e-125
1.4899e-126
-3.82304e-124
5.58159e-123
-8.22516e-121
5.51237e-121
-1.09913e-120
4.00288e-121
-5.83771e-119
-5.93721e-119
-5.3461e-119
-4.47236e-119
-4.64868e-119
-2.00825e-119
-1.00964e-117
-8.21009e-118
-1.60765e-117
-1.43154e-117
-4.34244e-117
9.04344e-117
-1.51678e-116
-8.72544e-117
-2.46785e-116
-2.41346e-116
-3.0823e-116
-3.01862e-116
-2.0525e-116
-1.95899e-116
-3.24912e-116
-2.26851e-116
-2.27505e-116
-1.52731e-116
-1.6541e-116
-8.23618e-117
-3.33032e-116
-3.02959e-116
-3.37718e-116
-5.69923e-116
1.04027e-115
-2.54836e-115
5.86225e-114
3.19402e-114
1.13626e-113
7.58689e-114
9.99872e-114
-2.04286e-114
3.87761e-113
-4.60195e-113
1.1581e-112
6.47923e-113
1.04334e-112
2.11641e-113
1.67495e-111
1.11661e-111
1.32365e-111
5.99655e-112
8.86056e-112
4.8931e-112
2.9974e-111
-9.09022e-111
2.23823e-110
6.32745e-111
5.0259e-110
1.4315e-110
1.0431e-109
6.28284e-110
4.49164e-109
1.37208e-109
3.35374e-109
5.62981e-110
2.82024e-109
2.85511e-110
1.33348e-108
1.01844e-108
9.80949e-109
6.52196e-109
7.3637e-109
4.30347e-109
2.73877e-108
1.54064e-108
3.44102e-108
2.07172e-108
4.35726e-108
-4.05206e-108
4.31268e-108
-3.36415e-108
1.2224e-107
8.23547e-108
4.38381e-107
-1.0618e-106
6.9319e-106
5.1444e-106
5.08128e-106
2.00781e-106
3.86242e-106
1.00669e-106
3.14028e-106
4.85568e-107
1.57691e-105
1.20796e-105
1.30686e-105
8.84333e-106
9.91651e-106
5.35044e-106
3.51498e-105
1.8057e-105
5.40681e-105
3.70606e-105
4.19861e-105
1.39631e-105
7.40208e-105
-2.81904e-105
2.25241e-104
1.50348e-104
1.81197e-104
7.29127e-105
4.20462e-104
4.19664e-104
2.85306e-104
2.2641e-104
1.96293e-104
1.40307e-104
1.47121e-104
4.45825e-105
1.69134e-104
9.55072e-105
3.74878e-104
2.67515e-104
2.97415e-104
1.28117e-104
1.46431e-103
9.0868e-104
1.7889e-103
1.32109e-103
1.27877e-103
8.58292e-104
1.27474e-103
1.98229e-104
2.07145e-103
1.57261e-103
1.77077e-103
2.11964e-104
3.1666e-103
2.72983e-103
2.18443e-103
1.74099e-103
1.49234e-103
1.11131e-103
1.27941e-103
7.24454e-104
9.29917e-104
3.686e-104
1.01048e-103
-6.16915e-104
9.10965e-103
6.18135e-103
7.51179e-103
1.00232e-104
1.21283e-102
6.01382e-103
9.47968e-103
2.67326e-103
3.21049e-102
2.21974e-102
2.45204e-102
1.63179e-102
1.77469e-102
1.16846e-102
2.68669e-102
1.73458e-102
2.74809e-102
2.00058e-102
4.81173e-102
-7.16077e-102
1.24598e-101
5.36547e-102
1.88773e-101
1.578e-101
1.33557e-101
1.00125e-101
1.51251e-101
1.26794e-101
1.13228e-101
6.3149e-102
1.51687e-101
1.22586e-101
1.06906e-101
7.07361e-102
2.83818e-101
2.19732e-101
2.21243e-101
1.56952e-101
1.60426e-101
1.06229e-101
2.89796e-101
1.84458e-101
3.31473e-101
2.53566e-101
2.34318e-101
1.6443e-101
2.29658e-101
3.69173e-102
2.7875e-101
1.8578e-101
2.51971e-101
8.38771e-102
1.82197e-101
6.94937e-102
1.49426e-101
2.34473e-102
2.33098e-101
1.71966e-101
1.60904e-101
1.07411e-101
1.54889e-101
1.15554e-101
1.73062e-101
1.5727e-101
1.18684e-101
1.0118e-101
1.82301e-101
1.43966e-101
1.72685e-101
1.42356e-101
1.19866e-101
9.59995e-102
9.34285e-102
4.19083e-102
9.95231e-102
7.50989e-102
6.97185e-102
4.37932e-102
1.01295e-101
5.7782e-102
9.10731e-102
6.20096e-102
6.36937e-102
4.61004e-102
4.90852e-102
3.77167e-102
3.71486e-102
2.71852e-102
3.99174e-102
-2.134e-102
1.45695e-101
1.04143e-101
1.10142e-101
5.67882e-102
-1.45769e-101
1.60266e-102
4.84838e-97
-3.2865e-98
8.52749e-95
9.9539e-95
-3.78123e-93
-2.49941e-93
-3.00947e-91
3.11245e-92
-4.06233e-89
-2.65338e-89
2.91819e-89
-5.52865e-88
-1.20311e-86
-2.28569e-86
1.01054e-83
-2.56675e-84
2.04539e-81
9.26705e-82
9.20753e-80
1.11534e-79
1.51705e-79
3.80105e-78
6.21078e-80
-1.44353e-24
-9.56733e-19
1.81671e-16
-7.56359e-16
-2.65689e-15
3.28663e-16
-1.05396e-21
-3.25403e-20
-2.69656e-21
1.31385e-27
-9.47685e-07
-1.83814e-29
-9.00267e-32
2.21057e-33
-4.30792e-35
1.95968e-37
7.11585e-40
-1.58713e-41
1.19346e-43
-5.81911e-46
1.38462e-48
2.68808e-51
3.24945e-53
-5.20978e-55
-2.18622e-57
4.62495e-59
-8.36322e-62
-7.05564e-64
-4.15659e-66
-1.02541e-68
1.41375e-70
5.28083e-73
3.641e-76
1.10087e-77
0.000640297
3.75885e-07
0.00257791
0.00543568
0.0090799
0.0120482
0.0131628
0.013174
0.0101776
0.00507606
-0.00166148
-0.00875638
-0.0177408
-0.0263319
-0.0343423
-0.0400992
-0.0424393
-0.0436157
-0.0420051
-0.0369416
-0.0333554
-0.0267877
-0.0190724
-0.0150078
-0.00999042
-0.0064683
-0.00310875
-0.00163676
-0.000529384
0.000547726
0.0013588
0.000981121
0.000838383
0.000659472
0.000563034
0.000449104
0.000272005
0.000196333
0.000130615
8.99176e-05
6.02058e-05
3.84766e-05
2.38722e-05
1.92879e-05
1.08664e-05
7.25799e-06
4.39796e-06
2.5439e-06
1.51316e-06
8.37054e-07
5.20627e-07
3.14069e-07
1.53496e-07
8.68942e-08
4.48747e-08
2.56202e-08
1.3911e-08
6.98843e-09
3.58033e-09
2.51564e-09
1.1414e-09
6.82055e-10
3.59391e-10
1.8909e-10
1.08696e-10
4.69503e-11
2.02834e-11
1.28739e-11
5.80074e-12
2.63517e-12
1.01882e-12
6.32648e-13
2.53894e-13
8.98184e-14
6.63052e-14
4.69623e-14
1.96564e-14
4.68226e-15
-4.13842e-15
-4.14876e-07
-5.77169e-14
3.57577e-25
-2.79254e-07
4.32325e-08
2.438e-07
-2.21216e-06
1.24516e-06
1.18035e-05
-3.4766e-05
-0.00018421
-4.46167e-07
1.76062e-07
5.26293e-08
-0.000275202
-7.69347e-08
2.38083e-07
2.48801e-07
-3.13482e-33
-3.03537e-09
-5.27959e-09
-3.30549e-08
-4.10147e-08
-1.21081e-07
1.67328e-07
-2.28445e-07
2.64809e-07
1.26688e-08
1.37618e-07
7.02547e-27
2.22776e-27
0.000111278
-0.000287844
3.51838e-23
-2.20143e-24
2.44201e-06
-7.65044e-07
8.09348e-07
-1.30733e-06
-6.06105e-07
-1.02296e-06
-5.18737e-07
2.17904e-07
4.18366e-07
1.0231e-06
2.49579e-06
-3.33995e-07
2.89696e-06
-2.18869e-06
2.3849e-06
-3.47609e-06
1.32034e-06
7.73716e-07
3.16682e-06
6.45131e-06
1.05367e-05
1.16056e-05
2.0419e-05
6.77016e-06
2.97171e-05
-2.04669e-05
2.92172e-05
-7.70355e-05
8.86571e-06
-0.000161451
-3.31378e-05
-0.000243738
-9.5453e-05
-0.000265531
-0.000203274
-0.000161284
-0.00030191
3.83328e-05
-0.000286259
0.000461317
-0.000263376
0.00114936
-9.23016e-05
0.00209086
0.000169359
0.00328874
0.000513992
0.00478529
0.000908883
0.0062896
0.00143557
0.00792273
0.0018151
0.00942711
0.00200776
0.0105632
0.00239799
0.0112601
0.00199797
0.0116526
0.00103813
0.0120472
0.000403423
0.0119535
-0.000771683
0.011462
-0.00202756
0.00970879
-0.00325779
0.0081445
-0.00604564
0.00534924
-0.0072037
0.00210565
-0.00991282
-0.000725964
-0.0125865
-0.00440195
-0.0140008
-0.00761198
-0.017101
-0.00995035
-0.0186341
-0.0133907
-0.0194684
-0.0173637
-0.021053
-0.0209872
-0.0223478
-0.0242836
-0.0234547
-0.0279122
-0.0241972
-0.0311716
-0.0246752
-0.0329559
-0.0243932
-0.0354437
-0.0243316
-0.0364177
-0.0230941
-0.0369717
-0.0210588
-0.0375402
-0.0198278
-0.0367552
-0.0182466
-0.0356155
-0.0145765
-0.0338914
-0.013019
-0.031877
-0.00993973
-0.0285794
-0.00709098
-0.0262185
-0.00347778
-0.0231806
-0.0011277
-0.0196014
0.00116197
-0.0176978
0.00493259
-0.0142084
0.00452076
-0.0107716
0.00732012
-0.00933774
0.00990216
-0.00751176
0.009438
-0.00480742
0.00983522
-0.00404897
0.0116733
-0.00182406
0.0102046
-5.9686e-05
0.0110211
0.000574122
0.0115307
0.00186519
0.0103446
0.0017713
0.0110345
0.0011527
0.00957903
0.0015304
0.00791601
0.00190001
0.00756991
0.00223964
0.00701848
0.00199174
0.00675728
0.00192045
0.00572647
0.00204282
0.00507228
0.00162305
0.00477096
0.00170202
0.00385097
0.00164597
0.00350657
0.00141202
0.00316163
0.00134683
0.00258712
0.00108283
0.00240283
0.000798701
0.00191862
0.000715705
0.00148793
0.000644151
0.00129622
0.000582317
0.00110319
0.000477916
0.000956005
0.000411903
0.00077571
0.000374475
0.000660755
0.000280827
0.000569867
0.000252504
0.00043519
0.000215593
0.000368322
0.000162016
0.000311851
0.000131988
0.000237185
0.000114384
0.000191658
8.68175e-05
0.000161113
7.2616e-05
0.000122977
6.0686e-05
0.000101621
5.07977e-05
8.23972e-05
3.94696e-05
6.7797e-05
3.20721e-05
5.251e-05
2.71084e-05
4.28127e-05
1.97495e-05
3.51549e-05
1.66238e-05
2.58168e-05
1.34013e-05
2.0823e-05
9.74141e-06
1.68477e-05
7.64197e-06
1.23783e-05
6.26358e-06
9.66889e-06
4.48347e-06
7.79612e-06
3.71913e-06
5.69387e-06
2.96413e-06
4.52662e-06
2.22355e-06
3.59012e-06
1.78392e-06
2.64817e-06
1.28272e-06
2.16012e-06
8.85363e-07
1.5526e-06
6.99236e-07
1.10009e-06
5.52195e-07
8.64125e-07
4.38081e-07
6.68102e-07
3.16312e-07
5.31079e-07
2.42771e-07
3.82078e-07
1.92086e-07
2.90604e-07
1.33314e-07
2.27755e-07
1.07382e-07
1.61635e-07
8.2855e-08
1.2503e-07
5.38191e-08
9.70646e-08
4.13497e-08
6.46714e-08
3.30096e-08