/*--------------------------------*- C++ -*----------------------------------*\
  =========                 |
  \\      /  F ield         | OpenFOAM: The Open Source CFD Toolbox
   \\    /   O peration     | Website:  https://openfoam.org
    \\  /    A nd           | Version:  7
     \\/     M anipulation  |
\*---------------------------------------------------------------------------*/
FoamFile
{
    version     2.0;
    format      ascii;
    class       volScalarField;
    location    "0.8";
    object      T;
}
// * * * * * * * * * * * * * * * * * * * * * * * * * * * * * * * * * * * * * //

dimensions      [0 0 0 1 0 0 0];

internalField   nonuniform List<scalar> 
2500
(
0.5
0.0669146
-0.0353169
-0.0277115
-0.00789976
0.00112931
0.00220711
0.000963794
3.88563e-05
-0.000206219
-0.000130475
-2.60559e-05
1.76156e-05
1.74837e-05
6.08561e-06
-9.06071e-07
-2.20759e-06
-1.13469e-06
-1.06163e-07
2.47859e-07
1.87024e-07
4.93953e-08
-2.13885e-08
-2.7786e-08
-1.17478e-08
4.19215e-10
3.6699e-09
2.26196e-09
4.04724e-10
-3.95866e-10
-3.7858e-10
-1.35848e-10
1.62218e-11
4.47191e-11
2.04463e-11
-1.45127e-12
-6.60458e-12
-2.38782e-12
2.0947e-12
3.37482e-12
2.28081e-12
6.79275e-13
-3.33064e-13
-6.10925e-13
-4.65124e-13
-2.2057e-13
-4.50228e-14
3.18984e-14
4.44315e-14
2.46608e-14
0.933085
0.5
0.14482
-0.0139075
-0.0411718
-0.0230289
-0.00507433
0.00215701
0.00250723
0.00101071
-9.38734e-08
-0.000255324
-0.000158213
-3.18213e-05
2.20241e-05
2.24005e-05
8.17946e-06
-9.48178e-07
-2.86443e-06
-1.56602e-06
-2.00129e-07
3.13493e-07
2.58849e-07
7.7701e-08
-2.39715e-08
-3.79592e-08
-1.7745e-08
-5.24462e-10
4.84816e-09
3.349e-09
8.02479e-10
-4.28721e-10
-4.97583e-10
-1.93699e-10
1.40198e-11
5.35915e-11
1.70407e-11
-1.53693e-11
-2.07829e-11
-1.03068e-11
8.0049e-13
5.79777e-12
5.43484e-12
2.94753e-12
7.37745e-13
-3.85643e-13
-6.23537e-13
-4.48844e-13
-2.13398e-13
-2.16177e-14
1.03532
0.85518
0.5
0.182448
0.00830364
-0.0419281
-0.032441
-0.0120093
3.84408e-05
0.00307766
0.00201936
0.000522644
-0.000189734
-0.000261936
-0.000118925
-6.07707e-06
2.86043e-05
2.02421e-05
5.19525e-06
-2.29056e-06
-2.95623e-06
-1.27806e-06
8.4613e-09
3.71767e-07
2.40886e-07
5.03428e-08
-3.69488e-08
-3.90144e-08
-1.49357e-08
1.54621e-09
5.3877e-09
3.1208e-09
5.2849e-10
-4.98774e-10
-4.1853e-10
-8.51679e-11
8.32525e-11
7.37857e-11
6.78361e-12
-3.52824e-11
-3.79381e-11
-2.06695e-11
-3.52309e-12
5.19523e-12
6.43843e-12
4.22877e-12
1.70594e-12
1.54546e-13
-4.20467e-13
-3.81571e-13
1.02771
1.01391
0.817552
0.5
0.206389
0.0268058
-0.0388677
-0.0384381
-0.0184166
-0.00302402
0.00284105
0.00282245
0.00118552
4.2633e-05
-0.000296282
-0.000211922
-6.02234e-05
1.88442e-05
2.95095e-05
1.43558e-05
1.17968e-06
-3.31266e-06
-2.54101e-06
-7.34799e-07
2.46647e-07
3.77323e-07
1.78959e-07
8.64124e-09
-4.68335e-08
-3.38806e-08
-8.98153e-09
3.78925e-09
5.00382e-09
2.13556e-09
-3.30132e-11
-5.59281e-10
-2.47712e-10
9.40152e-11
1.88309e-10
1.11391e-10
8.258e-12
-4.59168e-11
-4.92217e-11
-2.90573e-11
-8.71936e-12
2.54586e-12
5.51519e-12
4.2613e-12
2.14726e-12
2.87064e-13
1.0079
1.04117
0.991696
0.793611
0.5
0.223365
0.042154
-0.0343031
-0.0421139
-0.0239644
-0.00647534
0.00197761
0.00332499
0.00186777
0.000400612
-0.000245072
-0.000285991
-0.000129611
-8.1274e-06
3.15022e-05
2.39228e-05
7.25581e-06
-1.97861e-06
-3.44893e-06
-1.76134e-06
-1.84386e-07
3.91639e-07
3.18955e-07
1.0022e-07
-2.62813e-08
-4.72439e-08
-2.41838e-08
-2.64506e-09
4.91335e-09
3.64799e-09
7.09542e-10
-6.97441e-10
-6.20046e-10
-7.99754e-11
2.57905e-10
2.83149e-10
1.52152e-10
2.23254e-11
-4.23205e-11
-4.99178e-11
-3.18558e-11
-1.21915e-11
-4.55321e-13
3.65775e-12
3.02944e-12
0.998871
1.02303
1.04193
0.973194
0.776635
0.5
0.236308
0.0551561
-0.0291433
-0.0442026
-0.0286476
-0.0100134
0.000663016
0.00351519
0.00249279
0.000838178
-0.000110139
-0.000325109
-0.00020245
-4.98925e-05
2.37007e-05
3.12706e-05
1.49635e-05
1.2602e-06
-3.52149e-06
-2.80674e-06
-8.96575e-07
2.13315e-07
4.12611e-07
2.20392e-07
2.93859e-08
-4.428e-08
-3.80961e-08
-1.24845e-08
2.55893e-09
4.80417e-09
1.78755e-09
-7.52212e-10
-1.3065e-09
-6.94185e-10
1.57837e-11
3.46376e-10
3.31556e-10
1.77528e-10
3.97924e-11
-2.89727e-11
-4.16771e-11
-2.88534e-11
-1.30181e-11
-6.76593e-13
0.997793
1.00507
1.03244
1.03887
0.957846
0.763692
0.5
0.246668
0.0663827
-0.0238073
-0.0451887
-0.0325522
-0.0134733
-0.000959178
0.00341734
0.00301639
0.00131432
9.733e-05
-0.000320961
-0.000268331
-0.000102053
5.40087e-06
3.42591e-05
2.29965e-05
6.21777e-06
-2.43374e-06
-3.57197e-06
-1.78727e-06
-1.87235e-07
4.0232e-07
3.36114e-07
1.14278e-07
-1.91661e-08
-4.48385e-08
-2.30324e-08
-1.27415e-09
6.12673e-09
3.98105e-09
4.98918e-11
-1.87295e-09
-1.7187e-09
-7.57819e-10
2.94984e-11
3.46987e-10
3.23029e-10
1.77381e-10
5.09829e-11
-1.35693e-11
-2.99498e-11
-1.90512e-11
0.999036
0.997843
1.01201
1.03844
1.0343
0.944844
0.753332
0.5
0.255249
0.0762288
-0.0184971
-0.0453946
-0.0357829
-0.0167686
-0.00277966
0.00306919
0.00341666
0.00179625
0.000362307
-0.000271062
-0.000319196
-0.000159502
-2.26988e-05
3.14481e-05
3.00047e-05
1.24156e-05
-4.87774e-08
-3.78119e-06
-2.69948e-06
-7.90793e-07
2.46536e-07
4.07973e-07
2.10681e-07
2.54363e-08
-4.28125e-08
-3.36078e-08
-6.95228e-09
7.52787e-09
8.07238e-09
3.01331e-09
-1.12218e-09
-2.442e-09
-1.85392e-09
-7.70543e-10
-5.63098e-12
2.85615e-10
2.71379e-10
1.54178e-10
5.27909e-11
-9.80241e-12
0.999961
0.997493
0.999962
1.01842
1.04211
1.02914
0.933617
0.744751
0.5
0.262537
0.0849758
-0.0133115
-0.0450396
-0.0384394
-0.0198576
-0.00471768
0.00251112
0.00368607
0.00225945
0.000669094
-0.000176905
-0.000349474
-0.00021724
-5.8961e-05
2.21137e-05
3.47836e-05
1.9202e-05
3.59089e-06
-3.21887e-06
-3.44667e-06
-1.52748e-06
-6.39617e-08
4.06319e-07
2.98769e-07
8.20691e-08
-3.45557e-08
-4.70396e-08
-1.81507e-08
6.03346e-09
1.28761e-08
8.60433e-09
2.21489e-09
-1.61599e-09
-2.46731e-09
-1.72545e-09
-7.11543e-10
-4.82908e-11
2.00415e-10
2.04544e-10
9.40189e-11
1.00021
0.998989
0.996922
1.00302
1.02396
1.0442
1.02381
0.923771
0.737463
0.5
0.268847
0.0928295
-0.00829713
-0.0442768
-0.0406094
-0.0227243
-0.00671456
0.00178129
0.00382595
0.00268654
0.001003
-4.24467e-05
-0.000355816
-0.000270828
-0.000101222
6.15338e-06
3.63685e-05
2.58458e-05
8.28179e-06
-1.76147e-06
-3.84728e-06
-2.29018e-06
-5.00032e-07
3.25805e-07
3.71157e-07
1.49689e-07
-1.92145e-08
-6.53258e-08
-4.01455e-08
-4.48561e-09
1.38207e-08
1.4716e-08
8.0302e-09
1.64141e-09
-1.5806e-09
-2.11536e-09
-1.4213e-09
-5.92894e-10
-7.42251e-11
1.39063e-10
1.00013
1
0.997981
0.997159
1.00648
1.02865
1.04519
1.0185
0.915024
0.731153
0.5
0.274394
0.0999444
-0.00347339
-0.0432147
-0.0423674
-0.025367
-0.00872811
0.000913719
0.00384278
0.00306586
0.00135109
0.000127001
-0.000336701
-0.000316607
-0.00014711
-1.60495e-05
3.40647e-05
3.16007e-05
1.36753e-05
5.87498e-07
-3.77634e-06
-2.97492e-06
-1.0147e-06
1.80823e-07
4.37516e-07
2.42427e-07
1.73313e-08
-8.06251e-08
-7.30092e-08
-2.92881e-08
4.4393e-09
1.64293e-08
1.38061e-08
6.73977e-09
1.22717e-09
-1.26385e-09
-1.59703e-09
-1.07086e-09
-3.0976e-10
1.00003
1.00026
0.999477
0.997178
0.998022
1.01001
1.03255
1.04539
1.01331
0.90717
0.725606
0.5
0.279329
0.106439
0.00115474
-0.041932
-0.0437761
-0.0277924
-0.0107283
-6.2261e-05
0.00374582
0.0033902
0.00170247
0.000325545
-0.000292001
-0.000351727
-0.000194244
-4.37321e-05
2.74739e-05
3.57799e-05
1.93212e-05
3.68704e-06
-3.21164e-06
-3.53577e-06
-1.58988e-06
-2.74795e-08
5.05027e-07
3.81298e-07
1.02653e-07
-6.98204e-08
-1.04196e-07
-6.59809e-08
-1.89102e-08
8.43409e-09
1.52729e-08
1.12988e-08
5.14806e-09
9.05255e-10
-8.95419e-10
-1.00346e-09
0.999982
1.00016
1.00019
0.998814
0.996675
0.999337
1.01347
1.03578
1.04504
1.0083
0.900056
0.720671
0.5
0.283765
0.112406
0.00559006
-0.0404869
-0.0448875
-0.0300111
-0.0126941
-0.0011218
0.00354556
0.00365564
0.00204818
0.000547237
-0.00022258
-0.000374071
-0.000240317
-7.57934e-05
1.65639e-05
3.78896e-05
2.47894e-05
7.32815e-06
-2.21766e-06
-4.00489e-06
-2.27408e-06
-3.53297e-07
5.40291e-07
5.65172e-07
2.59917e-07
-1.93114e-09
-1.08361e-07
-1.0037e-07
-5.20193e-08
-1.09296e-08
8.84469e-09
1.21762e-08
8.28459e-09
3.66184e-09
1.30668e-10
0.999983
1.00003
1.00026
0.999957
0.998132
0.996485
1.00096
1.01677
1.03844
1.04428
1.00347
0.893561
0.716235
0.5
0.287787
0.11792
0.00983944
-0.0389223
-0.0457452
-0.0320359
-0.0146108
-0.00224409
0.00325287
0.00386071
0.00238113
0.000786366
-0.000130009
-0.000382194
-0.000283176
-0.000110852
1.72483e-06
3.77808e-05
2.98556e-05
1.13984e-05
-8.28113e-07
-4.4255e-06
-3.15804e-06
-9.13019e-07
4.43858e-07
7.38694e-07
4.78691e-07
1.41026e-07
-5.86774e-08
-1.1006e-07
-8.17996e-08
-3.68581e-08
-5.6283e-09
7.3367e-09
8.79876e-09
4.48733e-09
0.999994
0.999978
1.00012
1.0003
0.999599
0.997507
0.996583
1.00278
1.01986
1.04061
1.04321
0.998845
0.887594
0.712213
0.5
0.291459
0.123039
0.0139117
-0.0372711
-0.0463857
-0.0338802
-0.0164686
-0.00341183
0.00287835
0.00400566
0.0026957
0.0010375
-1.65114e-05
-0.000375449
-0.000321093
-0.000147501
-1.63678e-05
3.56577e-05
3.46159e-05
1.60475e-05
1.12472e-06
-4.70552e-06
-4.26831e-06
-1.82289e-06
7.33853e-08
7.87479e-07
6.95595e-07
3.41667e-07
5.50025e-08
-7.57579e-08
-9.13414e-08
-5.89945e-08
-2.38213e-08
-2.53307e-09
5.85684e-09
1
0.999978
1.00001
1.00021
1.00025
0.999162
0.996984
0.996931
1.00472
1.02272
1.04237
1.04193
0.99441
0.88208
0.708541
0.5
0.294834
0.127814
0.0178165
-0.035558
-0.0468395
-0.0355575
-0.0182614
-0.00461078
0.002432
0.00409184
0.00298743
0.00129537
0.000114934
-0.000354282
-0.000353243
-0.000184856
-3.72188e-05
3.17654e-05
3.9339e-05
2.16763e-05
4.09175e-06
-4.48867e-06
-5.43077e-06
-3.08392e-06
-6.77636e-07
5.79e-07
8.05415e-07
5.40615e-07
2.12789e-07
5.96666e-09
-6.88088e-08
-6.60566e-08
-3.91098e-08
-9.09786e-09
1
0.999992
0.999971
1.00006
1.00029
1.00011
0.998686
0.996583
0.997489
1.00671
1.02537
1.04378
1.04049
0.990161
0.876961
0.705166
0.5
0.297951
0.132283
0.0215636
-0.0338022
-0.0471324
-0.0370806
-0.0199853
-0.00582922
0.00192319
0.00412155
0.00325309
0.00155517
0.000260824
-0.000320256
-0.00038005
-0.00022312
-6.11638e-05
2.57888e-05
4.39971e-05
2.86304e-05
8.6585e-06
-3.17601e-06
-6.20985e-06
-4.48495e-06
-1.78384e-06
3.58632e-08
7.04948e-07
6.54939e-07
3.66646e-07
1.16797e-07
-1.46694e-08
-5.30039e-08
-3.70295e-08
1
1
0.99998
0.999981
1.00013
1.00033
0.999903
0.998204
0.996314
0.998219
1.00873
1.02779
1.04489
1.03892
0.986088
0.872186
0.702049
0.5
0.300845
0.136483
0.0251626
-0.0320186
-0.0472864
-0.038462
-0.0216385
-0.00705719
0.00136118
0.00409863
0.00349149
0.00181363
0.000418255
-0.000275206
-0.000402768
-0.000263603
-8.97178e-05
1.63212e-05
4.76888e-05
3.66867e-05
1.51604e-05
-1.60234e-07
-6.00764e-06
-5.60482e-06
-3.03791e-06
-7.99612e-07
3.48347e-07
6.14741e-07
4.5874e-07
2.2228e-07
5.68915e-08
-2.76084e-08
1
1
0.999995
0.99997
1.00001
1.0002
1.00032
0.999638
0.997741
0.996174
0.999086
1.01073
1.03001
1.04575
1.03727
0.982184
0.867717
0.699155
0.5
0.303542
0.14044
0.0286225
-0.0302187
-0.0473199
-0.0397128
-0.0232201
-0.00828578
0.000755753
0.00402922
0.00370476
0.00207082
0.000586932
-0.000219307
-0.000421933
-0.0003077
-0.000125082
9.09361e-07
4.83775e-05
4.4637e-05
2.32458e-05
4.80964e-06
-4.31216e-06
-5.94335e-06
-4.09116e-06
-1.75202e-06
-2.17921e-07
3.98427e-07
4.46521e-07
2.90769e-07
8.54102e-08
1
1
1
0.999986
0.999968
1.00005
1.00027
1.00027
0.999331
0.997313
0.996157
1.00006
1.01269
1.03204
1.04639
1.03556
0.978436
0.863517
0.696457
0.5
0.306067
0.144179
0.0319524
-0.0284112
-0.0472487
-0.0408439
-0.0247307
-0.00950794
0.00011621
0.00392109
0.00389842
0.00233104
0.00077092
-0.000148901
-0.000435141
-0.000354948
-0.000168692
-2.30418e-05
4.32941e-05
5.03085e-05
3.16657e-05
1.13303e-05
-9.78745e-07
-5.13028e-06
-4.57693e-06
-2.56543e-06
-8.62021e-07
4.57492e-08
3.30779e-07
2.4909e-07
1
1
1
0.999999
0.999976
0.999976
1.0001
1.00032
1.00018
0.998997
0.996934
0.996254
1.00112
1.01461
1.03388
1.04684
1.0338
0.974838
0.85956
0.693933
0.5
0.308437
0.147724
0.0351609
-0.026603
-0.0470874
-0.0418677
-0.0261753
-0.0107221
-0.000552632
0.00377976
0.00407834
0.00260118
0.000978289
-5.56911e-05
-0.000435489
-0.000401142
-0.000219378
-5.67543e-05
2.99931e-05
5.1155e-05
3.8485e-05
1.83047e-05
3.60977e-06
-3.10774e-06
-4.25909e-06
-2.99852e-06
-1.41439e-06
-3.54766e-07
1.75383e-07
1
1
1
1
0.999993
0.999969
0.999995
1.00016
1.00035
1.00004
0.998649
0.99661
0.996454
1.00224
1.01647
1.03556
1.04713
1.03202
0.971377
0.85582
0.691563
0.5
0.31067
0.151091
0.0382562
-0.0248008
-0.046852
-0.0428014
-0.0275677
-0.0119376
-0.00125698
0.00360165
0.00424428
0.00288538
0.00121742
7.12493e-05
-0.000412096
-0.00043777
-0.000272178
-9.86824e-05
7.62542e-06
4.52187e-05
4.1681e-05
2.4223e-05
8.60203e-06
-1.90978e-07
-3.13254e-06
-2.91326e-06
-1.75748e-06
-4.71217e-07
1
1
1
1
1
0.999985
0.999966
1.00002
1.00022
1.00036
0.999873
0.998298
0.996344
0.996747
1.00341
1.01826
1.03708
1.04729
1.03022
0.968048
0.852277
0.68933
0.499999
0.312779
0.154298
0.0412457
-0.02301
-0.0465585
-0.0436665
-0.0289309
-0.0131777
-0.00201921
0.00336722
0.00438235
0.00317768
0.00149066
0.000240628
-0.000353272
-0.000453601
-0.000318674
-0.000144048
-2.22145e-05
3.20245e-05
3.98759e-05
2.76533e-05
1.29391e-05
3.02259e-06
-1.42145e-06
-2.37847e-06
-1.46979e-06
1
1
1
1
1
0.999999
0.999977
0.999969
1.00006
1.00027
1.00034
0.999674
0.997952
0.996139
0.997122
1.00461
1.01999
1.03846
1.04732
1.02841
0.964842
0.848912
0.687219
0.499995
0.314775
0.157361
0.0441425
-0.0212268
-0.0462135
-0.0444792
-0.0302898
-0.0144745
-0.00287613
0.00303943
0.00446084
0.00345626
0.00178799
0.000453044
-0.000251337
-0.000438123
-0.000349035
-0.000185703
-5.55371e-05
1.29731e-05
3.28715e-05
2.77246e-05
1.56989e-05
5.85925e-06
4.68278e-07
-1.52319e-06
1
1
1
1
1
1
0.999994
0.99997
0.999978
1.0001
1.00032
1.00029
0.999453
0.997619
0.995994
0.997568
1.00583
1.02164
1.03971
1.04725
1.02661
0.961751
0.845705
0.685212
0.499983
0.316672
0.160307
0.0469802
-0.0194191
-0.0457933
-0.0452295
-0.0316515
-0.0158527
-0.00386688
0.00257144
0.0044336
0.00368325
0.00208437
0.000696873
-0.000107062
-0.000385487
-0.000355015
-0.000216063
-8.6943e-05
-8.9561e-06
2.17545e-05
2.43982e-05
1.63686e-05
7.87503e-06
1.16003e-06
1
1
1
1
1
1
1
0.999988
0.999965
0.999994
1.00015
1.00035
1.00022
0.999214
0.997304
0.995908
0.998077
1.00706
1.02322
1.04084
1.04709
1.02481
0.958765
0.842636
0.683289
0.499961
0.318492
0.163187
0.0498306
-0.0175056
-0.0452204
-0.0458561
-0.0329802
-0.0173062
-0.00501249
0.00192287
0.00425171
0.00381176
0.00234265
0.000948239
6.84188e-05
-0.000297259
-0.000332697
-0.000229334
-0.000111146
-3.00574e-05
8.55637e-06
1.83992e-05
1.52571e-05
6.67863e-06
1
1
1
1
1
1
1
1
0.999981
0.999964
1.00002
1.00019
1.00037
1.00013
0.998962
0.997012
0.995879
0.99864
1.00829
1.02473
1.04186
1.04685
1.02302
0.955876
0.839685
0.681434
0.49993
0.320272
0.166078
0.0528084
-0.015347
-0.0443503
-0.0462299
-0.0341783
-0.018777
-0.00629482
0.00107933
0.00387994
0.00379846
0.00252204
0.00117561
0.000255217
-0.000182767
-0.000283861
-0.000223161
-0.000124425
-4.6937e-05
-4.42617e-06
1.13223e-05
1.09484e-05
1
1
1
1
1
1
1
1
0.999996
0.999974
0.999966
1.00004
1.00024
1.00038
1.00002
0.998703
0.996746
0.995904
0.99925
1.00951
1.02616
1.04278
1.04656
1.02127
0.953084
0.836832
0.679613
0.499869
0.322026
0.169054
0.0560468
-0.0127645
-0.0429844
-0.0461602
-0.0350852
-0.0201485
-0.00764482
6.68865e-05
0.00331173
0.00361709
0.00258894
0.00134747
0.000429319
-5.69478e-05
-0.000215529
-0.000199122
-0.000125474
-5.73828e-05
-1.52063e-05
5.97443e-06
1
1
1
1
1
1
1
1
1
0.999992
0.999968
0.999972
1.00008
1.00028
1.00038
0.999882
0.998442
0.996512
0.995983
0.999893
1.01071
1.02752
1.04362
1.04624
1.01957
0.950387
0.834015
0.677718
0.499659
0.323681
0.172118
0.0596406
-0.00958965
-0.040912
-0.0454278
-0.0355015
-0.0212591
-0.008947
-0.00104525
0.00257646
0.00326774
0.00252618
0.00144023
0.000568473
6.3434e-05
-0.000137978
-0.000162029
-0.000115376
-6.16039e-05
-1.46347e-05
1
1
1
1
1
1
1
1
1
1
0.999986
0.999964
0.999984
1.00011
1.00032
1.00035
0.999734
0.998188
0.996314
0.996103
1.00054
1.01186
1.02881
1.04444
1.04599
1.01798
0.947716
0.831034
0.675449
0.49898
0.324976
0.175127
0.0635745
-0.00573032
-0.0379713
-0.0438395
-0.0352329
-0.0219345
-0.0100605
-0.00215577
0.00173604
0.00277867
0.00233768
0.0014437
0.000657265
0.000163762
-6.20937e-05
-0.000118177
-9.90101e-05
-4.64088e-05
1
1
1
1
1
1
1
1
1
1
0.999999
0.99998
0.999962
1
1.00015
1.00035
1.00031
0.99958
0.997951
0.996144
0.996234
1.00117
1.01298
1.03013
1.04539
1.04592
1.01645
0.9448
0.827392
0.672173
0.497194
0.325385
0.177726
0.0676674
-0.00122802
-0.0341085
-0.041285
-0.0341408
-0.0220292
-0.01085
-0.00315248
0.000872198
0.00220018
0.00204696
0.00136254
0.000689873
0.000234437
3.41788e-06
-7.62005e-05
-6.77115e-05
1
1
1
1
1
1
1
1
1
1
1
0.999996
0.999975
0.999964
1.00002
1.00018
1.00037
1.00027
0.999433
0.997727
0.995968
0.996325
1.00176
1.01415
1.03165
1.04663
1.04603
1.01468
0.940972
0.822139
0.666829
0.493313
0.324112
0.179351
0.0715633
0.00371796
-0.0294136
-0.037777
-0.0321824
-0.021463
-0.0112166
-0.00393647
6.89349e-05
0.00159327
0.00169099
0.00121387
0.00066999
0.000272287
5.2495e-05
-4.48474e-05
1
1
1
1
1
1
1
1
1
1
1
1
0.999992
0.999972
0.999968
1.00004
1.00021
1.00039
1.00023
0.999296
0.997481
0.995723
0.996349
1.0024
1.01559
1.03363
1.04828
1.04604
1.01189
0.934998
0.813796
0.657947
0.48607
0.320184
0.179307
0.0747799
0.00877193
-0.0241183
-0.0334623
-0.029428
-0.0202411
-0.0111186
-0.00444176
-0.000604142
0.00101686
0.0013115
0.00102218
0.000608257
0.000283282
4.81193e-05
1
1
1
1
1
1
1
1
1
1
1
1
1
0.99999
0.999969
0.999968
1.00005
1.00024
1.00042
1.00021
0.999132
0.997138
0.995358
0.996374
1.00333
1.01764
1.03627
1.05009
1.0451
1.00661
0.925036
0.800455
0.643835
0.474137
0.312635
0.176907
0.076804
0.0135229
-0.018558
-0.0285988
-0.0260503
-0.0184528
-0.0105775
-0.00464528
-0.00110307
0.000517403
0.000946824
0.000812534
0.000528382
0.000202115
1
1
1
1
1
1
1
1
1
1
1
1
1
1
0.999988
0.999963
0.999964
1.00007
1.0003
1.00049
1.00018
0.998862
0.996627
0.994922
0.996652
1.00494
1.0206
1.03944
1.05123
1.0416
0.996711
0.908802
0.780067
0.622901
0.456408
0.300735
0.171633
0.0772032
0.0175664
-0.0131097
-0.0235085
-0.0222914
-0.0162522
-0.00966932
-0.00456594
-0.00141338
0.00012334
0.000624102
0.000620678
0.000354931
1
1
1
1
1
1
1
1
1
1
1
1
1
1.00001
1
0.999981
0.999949
0.999961
1.00011
1.0004
1.00056
1.00005
0.998394
0.995969
0.994655
0.997613
1.00762
1.02441
1.0423
1.04998
1.03318
0.979591
0.883952
0.750862
0.594028
0.432288
0.284179
0.163263
0.0757201
0.0205813
-0.00812445
-0.018521
-0.0184185
-0.0138266
-0.00850506
-0.00425513
-0.00154679
-0.000158021
0.000371742
0.000399088
1
1
1
1
1
1
1
1
1
1
1
0.999999
1
1
1.00001
0.999999
0.999966
0.999932
0.999979
1.0002
1.00051
1.00055
0.999716
0.997725
0.995384
0.995003
0.999708
1.01143
1.02833
1.04313
1.04381
1.01697
0.952656
0.848589
0.711792
0.556888
0.401874
0.26319
0.151936
0.0723234
0.0223837
-0.00387299
-0.0139219
-0.0146805
-0.0113636
-0.0072083
-0.00378227
-0.00153491
-0.000331913
0.000221262
1
1
1
1
1
1
1
1
1
1
1
0.999999
0.999999
1
1.00001
1.00001
0.999988
0.999946
0.999932
1.00004
1.00031
1.00058
1.00036
0.999158
0.997048
0.995313
0.996462
1.00308
1.0157
1.03064
1.03928
1.02965
0.990154
0.913885
0.801747
0.662851
0.512094
0.366002
0.238508
0.138131
0.0672073
0.0229447
-0.000514226
-0.00991737
-0.0112752
-0.00902397
-0.00589448
-0.00321924
-0.00143566
-0.000238815
1
1
1
1
1
1
1
1
1
1
1
1
0.999999
1
1
1.00001
1
0.99997
0.999938
0.999969
1.00014
1.0004
1.00048
0.999942
0.998541
0.996786
0.996273
0.999242
1.00715
1.01874
1.02861
1.02749
1.00445
0.950557
0.862353
0.74371
0.605173
0.461153
0.326126
0.211271
0.122583
0.0607451
0.0223767
0.00190979
-0.00662036
-0.00833225
-0.0069257
-0.00465153
-0.00267431
-0.000935775
1
1
1
1
1
1
1
1
1
1
1
1
0.999999
1
1
1.00001
1
0.999988
0.999963
0.999962
1.00004
1.0002
1.00034
1.00018
0.999449
0.998267
0.997457
0.998517
1.00284
1.01029
1.01782
1.01889
1.00454
0.965877
0.89723
0.798547
0.676062
0.540904
0.406245
0.284091
0.182831
0.106158
0.0534157
0.0208951
0.00345726
-0.0040547
-0.00591232
-0.00512906
-0.00360891
-0.00169925
1
1
1
1
1
1
1
1
1
1
1
1
1
1
1
1
1
0.999994
0.999984
0.999983
1.00001
1.00008
1.00015
1.0001
0.999802
0.999258
0.99884
0.999336
1.0016
1.00569
1.00979
1.0095
0.998066
0.967893
0.912883
0.830758
0.724379
0.601475
0.472867
0.349879
0.241856
0.154555
0.0897229
0.0457239
0.0187701
0.00425712
-0.00217488
-0.00400396
-0.00373633
-0.00226149
1
1
1
1
1
1
1
1
1
1
1
1
1
1
1
1
0.999998
0.999994
0.999995
1.00001
1.00002
1.00003
1.00001
0.999932
0.99981
0.999719
0.999858
1.00054
1.00201
1.00402
1.00512
1.00217
0.990258
0.963455
0.91639
0.846059
0.75325
0.642913
0.5233
0.404143
0.294544
0.201228
0.127651
0.0740373
0.0381312
0.0162796
0.0044736
-0.000876487
-0.00263265
-0.00232508
1
1
1
1
1
1
1
1
1
1
1
1
1
1
1
1
0.999995
0.999991
0.999997
1.00002
1.00005
1.00003
0.99994
0.999786
0.99968
0.999815
1.0004
1.00152
1.00297
1.00404
1.00314
0.997662
0.98385
0.957278
0.913751
0.850554
0.767603
0.668029
0.557893
0.445068
0.337651
0.242401
0.163672
0.103052
0.0596819
0.0310087
0.0136718
0.00428645
-7.75492e-05
-0.00164672
1
1
1
1
1
1
1
1
1
1
1
1
1
1
1
1
0.999995
0.999988
0.999996
1.00003
1.00006
1.00005
0.999924
0.999702
0.999542
0.999738
1.00058
1.0021
1.00386
1.00472
1.00282
0.995532
0.979697
0.951912
0.909126
0.849385
0.77259
0.680983
0.579108
0.473188
0.37003
0.275816
0.195084
0.130202
0.0813629
0.0470311
0.0246136
0.0111441
0.00388347
-0.000106473
1
1
1
1
1
1
1
1
1
1
1
1
1
1
1
1
0.999995
0.999986
0.999993
1.00003
1.00007
1.00007
0.999934
0.999671
0.99945
0.999623
1.00056
1.00234
1.00443
1.00546
1.00323
0.994941
0.977565
0.948263
0.90483
0.846138
0.772524
0.686031
0.590384
0.490603
0.3923
0.300808
0.220374
0.153616
0.101364
0.0628685
0.03626
0.0190777
0.00895505
0.00226013
1
1
1
1
1
1
1
1
1
1
1
1
1
1
1
1
0.999995
0.999986
0.999991
1.00003
1.00008
1.00008
0.999949
0.99967
0.999407
0.999533
1.00047
1.00238
1.00471
1.00599
1.0038
0.995108
0.976807
0.946259
0.901765
0.842854
0.770419
0.686706
0.595157
0.500089
0.406204
0.318004
0.239208
0.172318
0.118426
0.0772796
0.04758
0.0273484
0.0146738
0.0052755
1
1
1
1
1
1
1
1
1
1
1
1
1
1
1
1
0.999995
0.999986
0.99999
1.00002
1.00007
1.00008
0.999961
0.999681
0.999397
0.999483
1.00039
1.00233
1.00479
1.00627
1.00425
0.995507
0.976779
0.94543
0.899983
0.840391
0.768028
0.685488
0.596261
0.504365
0.413935
0.328813
0.252164
0.186184
0.131949
0.0894424
0.0577422
0.0352533
0.0205152
0.00866329
1
1
1
1
1
1
1
1
1
1
1
1
1
1
1
1
0.999995
0.999986
0.99999
1.00002
1.00007
1.00008
0.999967
0.999691
0.999402
0.999465
1.00034
1.00226
1.00477
1.00638
1.00452
0.995868
0.977024
0.945266
0.899164
0.838884
0.766132
0.683834
0.595677
0.505641
0.417588
0.334925
0.260358
0.195729
0.141949
0.0990358
0.0662631
0.0422915
0.0260446
0.0121503
1
1
1
1
1
1
1
1
1
1
1
1
1
1
1
1
0.999995
0.999987
0.99999
1.00002
1.00007
1.00008
0.999969
0.999698
0.999409
0.999463
1.00032
1.00222
1.00473
1.0064
1.00464
0.996104
0.977286
0.945376
0.898912
0.838133
0.764929
0.682467
0.594643
0.505526
0.418896
0.337927
0.265011
0.201692
0.148672
0.1059
0.0727099
0.047901
0.0306794
0.0152677
1
1
1
1
1
1
1
1
1
1
1
1
1
1
1
1
0.999995
0.999987
0.99999
1.00002
1.00007
1.00008
0.999968
0.999701
0.999417
0.99947
1.00031
1.00219
1.00469
1.00637
1.00468
0.996245
0.977525
0.945615
0.898977
0.837835
0.764164
0.681309
0.593382
0.504624
0.418873
0.339214
0.267825
0.205974
0.154107
0.112001
0.0789386
0.0537561
0.0358908
0.0191344
)
;

boundaryField
{
    upperWall
    {
        type            zeroGradient;
    }
    outlet
    {
        type            zeroGradient;
    }
    inlet
    {
        type            fixedValue;
        value           uniform 1;
    }
    lowerWall
    {
        type            fixedValue;
        value           uniform 0;
    }
    frontAndBack
    {
        type            empty;
    }
}


// ************************************************************************* //
