/*--------------------------------*- C++ -*----------------------------------*\
  =========                 |
  \\      /  F ield         | OpenFOAM: The Open Source CFD Toolbox
   \\    /   O peration     | Website:  https://openfoam.org
    \\  /    A nd           | Version:  7
     \\/     M anipulation  |
\*---------------------------------------------------------------------------*/
FoamFile
{
    version     2.0;
    format      ascii;
    class       volScalarField;
    location    "0.55";
    object      T;
}
// * * * * * * * * * * * * * * * * * * * * * * * * * * * * * * * * * * * * * //

dimensions      [0 0 0 1 0 0 0];

internalField   nonuniform List<scalar> 
23686
(
0.509941
0.910643
0.997281
0.975489
1.00718
1.01727
1.00286
1.00909
1.00026
1.00127
0.999751
0.999405
0.999891
0.999662
0.999995
0.99997
1.00001
1.00003
1.00001
1.00002
1
1
0.999999
0.999998
1
0.999999
1
1
1
1
1
1
1
1
1
1
1
1
1
1
1
1
1
1
1
1
1
1
1
1
1
1
1
1
1
1
1
1
1
1
1
1
1
1
1
1
1
1
1
1
1
1
1
1
1
1
1
1
1
1
1
1
1
1
1
1
1
1
1
1
1
1
1
1
1
1
1
1
1
1
1
1
1
1
1
1
1
1
1
1
1
1
1
1
1
1
1
1
1
1
1
1
1
1
1
1
1
1
1
1
1
1
1
1
1
1
1
1
1
1
1
1
1
1
1
1
1
1
1
1
1
1
1
1
1
1
1
1
1
1
1
1
1
1
1
1
1
1
1
1
1
1
1
1
1
1
1
1
1
1
1
1
1
1
1
1
1
1
1
1
1
1
1
1
1
1
1
1
1
0.11164
-0.00310636
-0.000317299
5.52315e-05
-1.03085e-05
1.75243e-07
1.75516e-07
-3.22224e-08
2.01369e-09
3.75029e-10
-1.68578e-10
1.44468e-11
1.38143e-12
-8.07933e-13
9.07353e-14
6.40255e-15
-3.93038e-15
6.07987e-16
-1.3247e-17
-2.9349e-17
7.47024e-18
1.78787e-18
-4.11842e-19
-1.26705e-19
3.00627e-21
3.59499e-21
3.60029e-22
-4.67452e-23
-1.34051e-23
-1.02292e-24
9.67613e-26
2.74635e-26
2.03807e-27
-5.73095e-29
-3.52533e-29
-2.82242e-30
-3.99792e-32
2.83779e-32
3.41503e-33
1.47268e-34
-8.56506e-36
-2.18068e-36
-1.49768e-37
-1.12826e-39
1.04658e-39
1.08746e-40
5.41488e-42
2.80482e-44
-3.40124e-44
5.80511e-61
-1.06032e-44
1.35493e-43
8.11757e-42
-2.53821e-40
6.68543e-41
2.07781e-39
-6.7896e-37
4.32319e-35
8.56357e-34
1.31999e-32
-3.09441e-32
-1.37462e-30
-1.47589e-29
9.32484e-29
2.15749e-27
-9.51248e-27
-2.71629e-26
2.80713e-24
1.35503e-23
-9.05456e-23
2.84539e-21
1.20764e-20
-1.13065e-19
-8.61622e-19
1.68378e-18
-3.09511e-17
-4.71933e-16
-9.35832e-16
-7.8503e-15
-7.20361e-14
-2.08973e-13
2.53034e-13
-3.57122e-13
2.00773e-12
-4.62005e-12
5.48862e-12
-6.13039e-12
3.76363e-11
4.59935e-11
-2.8911e-10
-1.29417e-09
-1.37809e-09
8.42962e-10
3.11759e-08
1.30199e-07
3.36186e-07
7.39855e-07
1.25366e-06
1.55837e-06
2.08499e-06
1
1
1
1
1
1
1
1
1
1
1
1
1
1
1
1
1
1
1
1
1
1
1
1
1
1
1
1
1
1
1
1
1
1
1
1
1
1
1
1
1
1
0.999998
0.999999
0.999999
0.999999
1
1
1
1
0.999999
1
0.999997
0.999999
0.999998
0.999999
0.999992
0.999994
0.999972
0.999978
0.999977
0.999972
1.00003
1.00001
1.00013
1.00009
1.00027
1.00023
1.0004
1.00038
1.00045
1.00045
0.999937
1.00006
0.998418
0.998828
0.995229
0.996136
0.989958
0.991617
0.982056
0.984616
0.970906
0.974466
0.95572
0.96059
0.935675
0.941917
0.910475
0.91793
0.879873
0.889042
0.843133
0.854128
0.802456
0.814353
0.757608
0.770892
0.708365
0.723208
0.655988
0.671247
0.603435
0.618418
0.549921
0.565446
0.495794
0.511545
0.442405
0.457716
0.392162
0.406404
0.344602
0.35828
0.29866
0.311766
0.257662
0.269249
0.219992
0.230619
0.185543
0.195163
0.156329
0.164479
0.130669
0.137877
0.107364
0.113792
0.0882285
0.0934793
0.0720099
0.0764791
0.05805
0.0619371
0.0463462
0.0495328
0.0370588
0.0395782
0.0292829
0.0313834
0.022994
0.0246932
0.0177881
0.0191721
0.0138167
0.0148808
0.0106805
0.0115331
0.00809431
0.00878066
0.0061641
0.00667792
0.00465158
0.00505274
0.00347107
0.00378027
0.00259333
0.00282316
0.00193361
0.00210935
0.00141071
0.00154635
0.00103786
0.00113465
0.000759326
0.000831678
0.000548739
0.000603335
0.000399239
0.00043901
0.000284366
0.000314183
0.000204196
0.000225179
0.000144787
0.000160136
0.000101366
0.000112436
7.17845e-05
7.94401e-05
5.07984e-05
5.63251e-05
3.51381e-05
3.91427e-05
2.45023e-05
2.72445e-05
1.71394e-05
1.91101e-05
1.18736e-05
1.33677e-05
8.13063e-06
9.24525e-06
5.65932e-06
6.45793e-06
3.65759e-06
2.43531e-06
4.18262e-06
-1.01093e-44
1.76235e-06
0.0139069
-0.00200416
0.000101508
-3.29739e-06
-3.45345e-06
5.32192e-07
-1.86719e-08
-8.67427e-09
1.98584e-09
-2.29595e-10
-3.0132e-11
1.01848e-11
-1.26083e-12
-1.05045e-13
5.40147e-14
-6.64669e-15
-3.16062e-16
2.72266e-16
-6.2737e-17
-1.1386e-18
5.51774e-18
-3.77554e-20
-2.95489e-19
-2.9014e-20
6.20781e-21
1.41999e-21
1.39274e-23
-3.1049e-23
-4.49771e-24
-6.34083e-26
6.61468e-26
8.60677e-27
2.88757e-28
-7.12238e-29
-1.14841e-29
-5.47736e-31
3.93922e-32
1.14564e-32
8.28547e-34
7.92731e-36
-5.31704e-36
-6.51056e-37
-2.52911e-38
1.70118e-39
3.84076e-40
2.64967e-41
8.63353e-43
-5.96237e-44
-0.00133342
-1.39602e-44
2.09209e-06
1.39941e-44
9.86606e-43
-5.24884e-41
1.18408e-39
2.76315e-39
-1.03693e-38
-2.36747e-36
-2.27758e-34
-3.07288e-33
-4.08577e-32
5.52877e-31
3.81234e-30
1.65027e-29
-6.54844e-28
-1.99547e-27
4.14457e-26
-5.03574e-25
-8.51218e-24
1.20368e-23
-2.32346e-22
-9.39655e-21
1.60377e-20
3.67391e-19
8.51501e-19
-2.25925e-18
1.72424e-16
8.02683e-16
1.94329e-15
2.70469e-14
1.49881e-13
1.00865e-13
-1.92446e-13
-5.89402e-14
3.41797e-13
-1.81668e-12
-3.74334e-12
1.77883e-11
5.1116e-11
-2.24895e-11
-5.98352e-10
-1.61996e-09
-1.5325e-09
9.99822e-09
7.07743e-08
2.19506e-07
5.05491e-07
1.01909e-06
1.52387e-06
0.000148593
0.0642368
-2.77272e-05
0.453368
0.000140418
1.57756e-06
-1.07378e-05
1.40764e-06
-1.25927e-08
-2.71605e-08
5.36431e-09
-5.33267e-10
-1.06646e-10
2.86261e-11
-3.08859e-12
-3.92676e-13
1.55678e-13
-1.70278e-14
-1.41184e-15
7.54521e-16
-1.77517e-16
2.30306e-19
1.77002e-17
-2.07046e-19
-9.86115e-19
-1.10409e-19
2.03606e-20
5.11832e-21
1.21126e-22
-1.04872e-22
-1.66743e-23
-4.38548e-25
2.08933e-25
3.26012e-26
1.32394e-27
-2.09576e-28
-4.32349e-29
-2.29471e-30
1.01383e-31
3.92496e-32
3.26065e-33
6.09708e-35
-1.70268e-35
-2.46061e-36
-1.14013e-37
4.18167e-39
1.34253e-39
1.07315e-40
3.92086e-42
-1.36982e-43
-4.09819e-44
1.27579e-42
-4.11165e-41
1.14797e-39
9.11161e-40
-5.79548e-38
-2.16583e-36
-1.69189e-34
-1.80614e-33
-2.32958e-32
5.84171e-31
2.73168e-30
9.32021e-30
-5.24903e-28
-1.2678e-28
4.34332e-26
-4.56497e-25
-6.79573e-24
1.82399e-23
-1.74342e-22
-7.51364e-21
2.39201e-20
3.43857e-19
6.64546e-19
-4.27802e-18
1.33164e-16
5.8431e-16
1.3588e-15
2.28013e-14
1.31198e-13
9.4491e-14
-1.73158e-13
-2.8998e-14
3.24079e-13
-1.98418e-12
-3.73844e-12
2.03446e-11
5.81455e-11
-3.82364e-11
-7.19186e-10
-1.87789e-09
-1.59368e-09
1.27079e-08
8.43643e-08
2.61256e-07
5.97851e-07
1.19569e-06
1.76033e-06
1.02432e-44
-1.13216e-07
5.32847e-07
-8.58979e-08
3.92815e-09
1.22819e-09
-4.57807e-10
3.27851e-11
4.90746e-12
-2.19093e-12
2.27221e-13
2.30853e-14
-1.04407e-14
1.45174e-15
-2.95384e-17
-8.33149e-17
2.36333e-17
5.79227e-18
-1.45768e-18
-4.20004e-19
1.98512e-21
1.21964e-20
1.38257e-21
-1.23035e-22
-4.76631e-23
-4.11076e-24
2.26144e-25
9.56714e-26
8.16046e-27
-1.05329e-28
-1.14672e-28
-1.13434e-29
-2.41027e-31
8.46889e-32
1.28661e-32
6.50575e-34
-2.18316e-35
-7.17162e-36
-6.09741e-37
-1.00347e-38
3.08311e-39
4.20885e-40
2.3093e-41
3.22542e-43
-9.89138e-44
3.87537e-42
-2.70269e-40
6.92191e-40
6.64562e-39
-4.98131e-37
3.80573e-35
5.89111e-34
8.04324e-33
-6.64779e-32
-1.23374e-30
-1.13959e-29
9.15107e-29
1.58641e-27
-1.27148e-26
-2.58769e-26
2.53426e-24
9.22132e-24
-9.7312e-23
2.39751e-21
7.67721e-21
-1.19319e-19
-7.60794e-19
2.15897e-18
-2.09395e-17
-3.75979e-16
-6.07258e-16
-6.61847e-15
-6.13699e-14
-1.86013e-13
2.37593e-13
-3.46822e-13
1.98556e-12
-4.69168e-12
4.94137e-12
-5.38106e-12
4.3204e-11
4.88779e-11
-3.37217e-10
-1.47395e-09
-1.65844e-09
1.51051e-09
3.78118e-08
1.55647e-07
3.99297e-07
8.72603e-07
1.47641e-06
1.83496e-06
-0.00528114
-0.00556021
1.8066e-43
0.594883
-0.00160947
0.942444
1.00339
0.979133
1.00791
1.01325
1.00265
1.00761
0.999944
1.00096
0.999656
0.999356
0.999885
0.999649
1
0.999959
1.00002
1.00003
1.00001
1.00002
1
1
0.999999
0.999998
1
0.999999
1
1
1
1
1
1
1
1
1
1
1
1
1
1
1
1
1
1
1
1
1
1
1
1
1
1
1
1
1
1
1
1
1
1
1
1
1
1
1
1
1
1
1
1
1
1
1
1
1
1
1
1
1
1
1
1
1
1
1
1
1
1
1
1
1
1
1
1
1
1
1
1
1
1
1
1
1
1
1
1
1
1
1
1
1
1
1
1
1
1
1
1
1
1
1
1
1
1
1
1
1
1
1
1
1
1
1
1
1
1
1
1
1
1
1
1
1
1
1
1
1
1
1
1
1
1
1
1
1
1
1
1
1
1
1
1
1
1
1
1
1
1
1
1
1
1
1
1
1
1
1
1
1
1
1
1
1
1
1
1
1
1
1
1
1
1
1
1
1
3.76761e-43
0.00261077
0.000236229
0.235597
-1.05639e-05
-3.43467e-06
7.57137e-07
-5.52956e-08
-7.5607e-09
3.24022e-09
-3.7816e-10
-2.41762e-11
1.57085e-11
-2.16378e-12
-8.81501e-14
7.59523e-14
-1.24997e-14
4.76643e-16
4.44299e-16
-1.44037e-16
-9.65618e-18
1.11986e-17
1.16658e-18
-4.28774e-19
-7.82798e-20
3.28314e-21
2.56069e-21
2.44656e-22
-1.67923e-23
-6.81556e-24
-6.13287e-25
2.27447e-26
9.57393e-27
9.8914e-28
-4.07652e-30
-1.03345e-29
-1.16346e-30
-4.28414e-32
6.27975e-33
9.87073e-34
6.17291e-35
-8.59753e-37
-5.50607e-37
-5.66368e-38
-2.16942e-39
1.39893e-40
2.34267e-41
1.85794e-42
5.51195e-44
-2.1412e-42
-0.00445074
-0.00527208
-0.00421271
-7.26363e-45
2.73615e-06
3.90365e-06
-1.31586e-05
-1.12008e-05
0.517419
-2.62937e-40
9.61756e-40
2.37428e-39
-5.54577e-37
3.85829e-35
6.16548e-34
6.66848e-33
-5.71374e-32
-1.72152e-30
-1.40563e-29
8.54732e-29
2.03069e-27
-1.62059e-26
-7.81788e-26
3.22413e-24
1.49884e-23
-1.45786e-22
2.609e-21
1.3975e-20
-1.51671e-19
-1.12039e-18
2.41397e-18
-1.59745e-17
-5.29712e-16
-1.00807e-15
-8.44286e-15
-8.44415e-14
-3.10608e-13
2.629e-13
-3.84839e-13
2.83019e-12
-7.07094e-12
7.12854e-12
-3.46986e-12
6.26227e-11
4.29083e-11
-5.76331e-10
-2.13417e-09
-1.97536e-09
4.65636e-09
6.24746e-08
2.3184e-07
5.79338e-07
1.23752e-06
2.02123e-06
2.2307e-06
2.87352e-06
0.0528654
0.185682
0.025489
7.61732e-05
0.000473589
6.62957e-05
7.89362e-06
1
1
1
1
1
1
1
1
1
1
1
1
1
1
1
1
1
1
1
1
1
1
1
1
1
1
1
1
1
1
1
1
1
1
1
1
1
1
1
1
0.999998
0.999999
1
0.999999
1
1
1
1
0.999999
1
0.999999
1
1
1
0.99999
0.999994
0.99997
0.999972
0.999977
0.999961
1.00003
0.999996
1.00013
1.00008
1.00028
1.00023
1.00044
1.00043
1.00044
1.00056
0.999795
1.00025
0.998129
0.999074
0.994839
0.996633
0.989703
0.9924
0.982013
0.986092
0.970859
0.976436
0.955802
0.963169
0.935695
0.945225
0.909782
0.921452
0.879165
0.892418
0.843245
0.859267
0.802013
0.819748
0.757156
0.775933
0.709287
0.729249
0.65706
0.679007
0.602554
0.624057
0.550009
0.570895
0.496726
0.517746
0.443361
0.464221
0.392535
0.412061
0.345241
0.363041
0.300163
0.317418
0.258406
0.273901
0.220781
0.234823
0.186475
0.199126
0.156934
0.167737
0.131081
0.140251
0.108178
0.116459
0.0886123
0.0955849
0.0722016
0.0779471
0.0585725
0.0633463
0.046838
0.0509789
0.0371207
0.040392
0.0294812
0.0321471
0.0231308
0.0252808
0.017946
0.0197081
0.013915
0.0152737
0.0107742
0.0118212
0.00820774
0.00906979
0.00622093
0.006873
0.0046866
0.00518501
0.00351004
0.00389637
0.00261603
0.00290743
0.00195027
0.00216379
0.0014337
0.00160107
0.00104826
0.0011718
0.00076259
0.000851701
0.000557721
0.00062417
0.000404828
0.000452175
0.000290611
0.000326934
0.000207491
0.000233409
0.000147084
0.000165881
0.000103369
0.00011705
7.31182e-05
8.26235e-05
5.1686e-05
5.82588e-05
3.60732e-05
4.09342e-05
2.49082e-05
2.82916e-05
1.74254e-05
1.97049e-05
1.23884e-05
1.39515e-05
8.87755e-06
1.01145e-05
0.759785
2.76252e-44
-0.000422185
0.806072
4.43105e-43
0.000213928
1.67187e-42
3.59403e-44
6.51626e-07
1.63027e-07
-4.58157e-08
4.84791e-09
4.08993e-10
-2.17831e-10
2.76499e-11
1.35437e-12
-1.10503e-12
1.49383e-13
3.53033e-15
-5.30673e-15
1.25383e-15
-6.27138e-17
-7.19103e-17
1.29307e-17
4.93185e-18
-2.63429e-19
-2.36054e-19
-1.33473e-20
4.52691e-21
9.69795e-22
2.31422e-23
-1.43153e-23
-2.40506e-24
-7.58883e-26
2.13237e-26
3.37359e-27
1.84471e-28
-2.18753e-29
-3.64834e-30
-2.9199e-31
5.16434e-33
2.85278e-33
2.75984e-34
8.40725e-36
-1.25105e-36
-1.87775e-37
-1.35072e-38
-2.26677e-41
7.03468e-41
6.92511e-42
3.61387e-43
4.34969e-43
-2.0881e-07
-6.19015e-41
1.69215e-39
-2.61561e-40
-1.49182e-37
-5.10249e-37
-1.59612e-34
-1.52547e-33
-2.70836e-32
7.46146e-31
2.65044e-30
1.88323e-29
-5.5396e-28
-9.60587e-28
6.02163e-26
-4.23892e-25
-8.43533e-24
1.37832e-23
-1.97072e-23
-9.9677e-21
2.22768e-20
4.46215e-19
1.39933e-18
-8.16973e-18
1.56548e-16
8.79768e-16
1.67568e-15
2.85971e-14
1.95251e-13
2.43503e-13
-3.76335e-13
3.06636e-13
-8.68484e-13
-4.43471e-13
-8.12677e-12
3.75644e-11
7.37238e-11
-1.19481e-10
-1.10433e-09
-2.44975e-09
-1.47766e-09
2.33618e-08
1.29785e-07
3.83751e-07
8.48874e-07
1.65724e-06
2.3901e-06
1.61869e-06
-3.6959e-12
2.07531e-42
3.80399e-11
6.25959e-06
-2.75324e-05
-1.2615e-10
2.24528e-06
1.34975e-06
6.27044e-07
2.43297e-07
6.34433e-08
3.60629e-09
-2.45748e-09
-2.28877e-09
-5.79674e-10
6.11107e-11
6.82281e-11
-5.51692e-12
7.16858e-12
-7.41813e-12
3.03572e-12
-4.41046e-13
2.95432e-13
-3.0143e-13
-8.99118e-14
-9.12008e-15
-7.8574e-16
-5.17339e-16
-1.95204e-17
3.32669e-18
-1.19753e-18
-1.85348e-19
9.90849e-21
3.09601e-21
-1.67416e-22
1.20387e-23
3.56531e-24
-6.61538e-26
-2.28988e-26
1.93634e-27
1.26623e-28
-1.4139e-29
-1.82831e-30
-1.27196e-31
5.43041e-33
5.82116e-34
4.6235e-35
-6.49536e-37
1.14997e-38
2.62762e-43
6.16151e-42
7.6572e-41
2.83414e-40
-9.64133e-39
-1.77959e-37
-1.60812e-36
8.59907e-37
2.21171e-34
2.99846e-33
1.4716e-32
-1.97372e-31
-3.57927e-30
-2.9928e-29
5.94639e-29
3.1388e-27
2.76428e-26
1.83639e-26
-2.14241e-24
-1.85743e-23
-2.41928e-23
8.80106e-22
6.58683e-21
2.08648e-21
-2.50234e-19
-9.61622e-19
4.15236e-18
2.80295e-17
-4.27032e-17
-3.0741e-16
1.25604e-15
-7.82676e-16
-2.11428e-14
1.92406e-13
-5.88959e-13
2.64809e-06
1.81607e-06
9.18628e-07
4.0749e-07
1.34633e-07
2.23677e-08
-2.21737e-09
-2.80086e-09
-1.14657e-09
-9.2875e-11
8.55968e-11
3.77219e-11
-8.03487e-12
-1.56308e-12
-2.33093e-13
1.15602e-13
-3.25348e-13
2.08805e-13
2.00431e-13
3.09257e-14
1.66203e-15
7.83952e-16
1.70982e-16
-8.68737e-18
1.14287e-18
5.18261e-19
3.76866e-20
-1.0272e-20
-1.1562e-22
2.92541e-23
-8.69267e-24
-5.87643e-25
7.19679e-26
8.28528e-28
-6.6291e-28
8.98567e-30
2.75643e-30
9.39642e-31
-1.86165e-32
-1.31433e-33
-1.8483e-34
-5.63463e-41
1.44682e-42
2.25243e-41
1.92595e-40
-8.35597e-40
-4.87869e-38
-5.76051e-37
-2.90767e-36
3.94006e-35
9.12946e-34
7.93126e-33
-5.34547e-33
-1.00865e-30
-1.13212e-29
-4.26653e-29
7.46691e-28
1.02687e-26
4.91251e-26
-3.79444e-25
-7.22108e-24
-3.32895e-23
1.36407e-22
2.93349e-21
1.00896e-20
-5.36789e-20
-6.37669e-19
-7.83332e-20
1.43345e-17
2.32554e-17
-1.91055e-16
-3.87783e-18
2.48674e-15
-1.37898e-14
3.45792e-14
2.32604e-13
-2.84741e-12
8.31401e-12
4.0633e-11
-5.31484e-10
1.99165e-09
6.0399e-09
-1.04477e-07
5.89488e-07
7.8318e-09
-3.02927e-08
-3.21945e-08
-5.6462e-10
1.77752e-39
-4.06907e-40
1.83969e-39
-2.19568e-40
-1.57043e-37
-2.12996e-36
0.000277452
0.982244
1.00991
1.00371
1.00638
1.01397
1.00125
1.00491
0.999712
1.00021
0.999713
0.999455
0.999923
0.999743
1.00001
0.999978
1.00002
1.00003
1
1.00001
0.999999
1
0.999999
0.999998
1
0.999999
1
1
1
1
1
1
1
1
1
1
1
1
1
1
1
1
1
1
1
1
1
1
1
1
1
1
1
1
1
1
1
1
1
1
1
1
1
1
1
1
1
1
1
1
1
1
1
1
1
1
1
1
1
1
1
1
1
1
1
1
1
1
1
1
1
1
1
1
1
1
1
1
1
1
1
1
1
1
1
1
1
1
1
1
1
1
1
1
1
1
1
1
1
1
1
1
1
1
1
1
1
1
1
1
1
1
1
1
1
1
1
1
1
1
1
1
1
1
1
1
1
1
1
1
1
1
1
1
1
1
1
1
1
1
1
1
1
1
1
1
1
1
1
1
1
1
1
1
1
1
1
1
1
1
1
1
1
1
1
1
1
1
1
1
1
2.51037e-37
-1.11632e-05
1.64947e-13
2.71275e-39
7.36516e-06
1.43472e-11
-3.23673e-09
2.78311e-09
1.07784e-06
6.55845e-08
-4.30312e-08
-2.53925e-08
5.86945e-09
8.24738e-09
7.4735e-09
2.98454e-06
4.87643e-06
-1.93421e-10
-8.52107e-11
2.01182e-42
3.38068e-11
3.92846e-11
3.51054e-06
-2.30457e-12
4.344e-14
6.22413e-14
-1.65107e-14
1.29651e-15
4.97373e-16
-2.07707e-16
-2.19217e-17
1.18849e-17
2.32996e-18
-2.79112e-19
-1.01846e-19
-4.85946e-21
1.79597e-21
3.24533e-22
1.00207e-23
-4.18113e-24
-6.44569e-25
-1.87143e-26
5.26047e-27
9.44111e-28
4.49927e-29
-4.07533e-30
-9.25741e-31
-6.57644e-32
3.49157e-34
6.19885e-34
6.2538e-35
2.16484e-36
-1.9612e-37
-3.70642e-38
-2.57243e-39
-4.26958e-41
1.02655e-41
-1.66997e-05
-2.49828e-05
-2.99894e-37
-3.27213e-39
-3.88171e-40
2.94097e-39
1.26683e-39
-3.27725e-37
-5.26688e-37
-7.17635e-37
-1.83932e-36
-7.34753e-41
-5.97097e-40
-1.74148e-34
-5.35348e-34
-1.31196e-32
1.16945e-30
2.26145e-30
1.52861e-29
-6.94431e-28
5.68449e-28
1.01427e-25
-4.60133e-25
-1.10308e-23
2.6028e-23
1.43126e-22
-1.26999e-20
3.81872e-20
6.71594e-19
2.09511e-18
-1.49852e-17
1.80475e-16
1.12612e-15
1.80607e-15
3.73472e-14
2.78082e-13
4.65641e-13
-6.11787e-13
6.47611e-13
-2.38548e-12
1.59688e-12
-1.51592e-11
6.63527e-11
1.0267e-10
-2.4061e-10
-1.74622e-09
-3.47628e-09
-1.64787e-09
4.08494e-08
2.06707e-07
5.85367e-07
1.3026e-06
2.46157e-06
3.27878e-06
-1.62993e-06
-7.78345e-06
1.07711e-06
1
1
1
1
1
1
1
1
1
1
1
1
1
1
1
1
1
1
1
1
1
1
1
1
1
1
1
1
1
1
1
1
1
1
1
1
1
1
0.999999
0.999999
1
0.999999
1
1
1
1
0.999999
1
1
1
1
1
0.99999
0.999995
0.999969
0.999971
0.999972
0.999957
1.00002
0.999986
1.00011
1.00006
1.00027
1.00021
1.00044
1.00042
1.00046
1.00057
0.999852
1.00032
0.998313
0.999265
0.995342
0.997066
0.990766
0.993273
0.983707
0.987584
0.973406
0.978726
0.959124
0.966162
0.939633
0.948917
0.914716
0.926106
0.884961
0.898446
0.850194
0.865852
0.810329
0.827551
0.766042
0.784741
0.718234
0.738239
0.66718
0.688663
0.613086
0.635121
0.559575
0.580561
0.506503
0.527933
0.452997
0.473802
0.401965
0.421644
0.353407
0.371334
0.30822
0.325511
0.266006
0.281586
0.227871
0.241979
0.192716
0.205717
0.162415
0.173461
0.135609
0.145362
0.112016
0.120536
0.092211
0.0993013
0.0751823
0.0811638
0.0608429
0.0658415
0.0487836
0.0529569
0.0388821
0.0423376
0.0307623
0.0335251
0.0242155
0.0264726
0.0188193
0.0206481
0.0146348
0.0160569
0.0112719
0.0123563
0.00863704
0.00952592
0.00655161
0.00723123
0.00494267
0.00547456
0.00369712
0.00410544
0.00276687
0.00307321
0.00206175
0.00229025
0.00151179
0.00168839
0.00111396
0.00124391
0.000808614
0.000904653
0.000590875
0.000660933
0.000427092
0.000477365
0.000308819
0.000346594
0.000220985
0.000248196
0.000156663
0.000176313
0.00011102
0.00012523
7.85518e-05
8.86436e-05
5.52973e-05
6.25212e-05
3.85172e-05
4.37596e-05
2.67686e-05
3.03938e-05
1.87412e-05
2.12306e-05
1.3151e-05
1.48117e-05
3.09839e-05
-1.13942e-05
3.63061e-06
-0.00459306
-4.40316e-10
-5.18161e-10
-0.000867393
7.78045e-05
5.05413e-06
8.42261e-43
0.572277
2.86511e-42
1.52462e-38
0.872928
7.66602e-06
1.42855e-09
9.21284e-11
6.45134e-07
-8.21656e-08
2.39271e-39
1.50348e-06
5.73927e-11
3.96853e-06
3.01986e-14
-9.05758e-13
1.83146e-13
-9.99597e-15
-4.93865e-15
1.62471e-15
-1.38176e-16
-1.07221e-16
1.04672e-17
6.73079e-18
2.26101e-19
-2.19374e-19
-3.20494e-20
1.69145e-21
8.99645e-22
8.45495e-23
-5.16849e-24
-1.91418e-24
-1.55101e-25
5.66486e-27
2.63065e-27
2.60648e-28
-5.08646e-32
-2.34249e-30
-2.83304e-31
-1.02017e-32
1.22617e-33
2.18012e-34
1.43404e-35
-2.04126e-38
-9.86729e-38
-1.0906e-38
-4.76242e-40
1.40859e-41
6.63657e-12
-9.38132e-42
3.92662e-06
0.0179633
-0.003371
-2.70072e-39
3.90816e-39
1.13283e-42
0.921152
3.62657e-34
4.34699e-34
4.51191e-35
1.87821e-34
5.64608e-35
4.05261e-35
-1.40347e-31
-2.49465e-30
-1.54766e-29
1.21909e-28
2.26531e-27
-2.82655e-26
-1.45908e-25
3.99468e-24
1.74539e-23
-2.32627e-22
3.07647e-21
1.62953e-20
-2.33185e-19
-1.61702e-18
3.41604e-18
-4.25735e-18
-6.4657e-16
-1.17096e-15
-1.00691e-14
-1.1722e-13
-4.68866e-13
2.43379e-13
-3.64215e-13
3.91285e-12
-1.01017e-11
8.88818e-12
1.50647e-12
9.41031e-11
3.73484e-11
-9.53305e-10
-3.20858e-09
-2.80449e-09
9.75557e-09
1.02942e-07
3.61767e-07
8.8454e-07
1.87887e-06
0.000195338
-2.19979e-33
9.47092e-06
0.0738136
0.000138865
2.6831e-06
1.39846e-06
6.23962e-07
2.14262e-07
3.9716e-08
-2.90283e-09
-4.03139e-09
-1.80844e-09
-1.97981e-10
1.21598e-10
6.74321e-11
-1.5464e-11
-1.75163e-14
-1.55755e-12
4.14096e-13
-5.52295e-13
4.13443e-13
2.81676e-13
4.26273e-14
1.68877e-15
1.00108e-15
2.00399e-16
-1.62288e-17
1.78363e-18
7.52688e-19
6.09883e-20
-1.3298e-20
2.59123e-23
4.90686e-23
-1.19876e-23
-6.51131e-25
1.19147e-25
2.40236e-41
-2.78194e-40
-9.41593e-39
-1.07039e-37
-3.5182e-37
1.00046e-35
2.04008e-34
1.61591e-33
-3.51959e-33
-2.3887e-31
-2.6349e-30
-7.12409e-30
1.96525e-28
2.81882e-27
1.13929e-26
-9.96012e-26
-1.97572e-24
-9.34112e-24
5.6169e-23
9.73306e-22
3.87012e-21
-2.32019e-20
-2.75919e-19
-3.92767e-19
7.29992e-18
2.682e-17
-8.98047e-17
-4.50072e-16
1.53154e-15
2.94549e-16
-3.37186e-14
-1.09124e-07
-6.80142e-10
2.03077e-06
9.49387e-07
3.82626e-07
1.04805e-07
8.11014e-09
-3.54237e-09
-3.45775e-09
-9.49072e-10
6.55522e-11
1.04011e-10
-2.14508e-12
9.10534e-12
-1.08987e-11
4.30956e-12
-4.73202e-13
3.08958e-13
-4.69004e-13
-1.23394e-13
-1.1047e-14
-8.09648e-16
-6.40479e-16
-9.73745e-18
4.83811e-18
-1.7081e-18
-2.80391e-19
1.0639e-20
3.74392e-21
-2.70737e-22
1.26168e-23
4.5222e-24
-1.37764e-25
-0.00678227
-0.0031757
-0.00995505
-3.81046e-26
2.15482e-27
1.81473e-28
-1.4741e-29
-2.62101e-30
-2.41745e-31
7.54592e-42
-1.93443e-39
-3.57503e-38
-2.62504e-37
8.22014e-37
5.21855e-35
6.66033e-34
2.3409e-33
-4.55242e-32
-9.03793e-31
-5.9146e-30
1.82064e-29
8.68288e-28
6.82215e-27
1.29568e-27
-5.55522e-25
-5.16034e-24
-3.53706e-24
2.92312e-22
2.34946e-21
6.36459e-22
-1.02827e-19
-5.09726e-19
1.48799e-18
1.66703e-17
8.26597e-18
-2.87509e-16
-5.05304e-17
3.38041e-15
-1.50519e-14
7.95596e-15
3.08832e-13
-2.52414e-12
5.24034e-42
0.64697
-6.40703e-42
3.93954e-07
-1.16855e-07
4.45138e-42
1.80637e-13
-3.37669e-13
-3.86281e-12
1.19725e-41
-7.18672e-41
3.19971e-27
-8.54809e-28
4.52689e-31
2.42027e-30
-1.87169e-34
1.4529e-30
1.02795e-34
0.00045649
-8.04474e-08
3.58918e-06
2.97696e-27
1.00293
1.00828
1.01211
1.00307
1.00796
1.00022
1.00185
0.999626
0.999683
0.999808
0.999572
0.999981
0.999882
1.00002
1.00002
1.00001
1.00003
1
1.00001
0.999999
0.999999
0.999999
0.999998
1
0.999999
1
1
1
1
1
1
1
1
1
1
1
1
1
1
1
1
1
1
1
1
1
1
1
1
1
1
1
1
1
1
1
1
1
1
1
1
1
1
1
1
1
1
1
1
1
1
1
1
1
1
1
1
1
1
1
1
1
1
1
1
1
1
1
1
1
1
1
1
1
1
1
1
1
1
1
1
1
1
1
1
1
1
1
1
1
1
1
1
1
1
1
1
1
1
1
1
1
1
1
1
1
1
1
1
1
1
1
1
1
1
1
1
1
1
1
1
1
1
1
1
1
1
1
1
1
1
1
1
1
1
1
1
1
1
1
1
1
1
1
1
1
1
1
1
1
1
1
1
1
1
1
1
1
1
1
1
1
1
1
0.473971
1
2.22567e-42
0.113514
-1.83931e-41
6.3163e-06
0.228572
5.73501e-09
-1.51008e-10
5.09913e-07
-2.28508e-08
-1.30762e-38
-4.40132e-10
-4.58448e-10
1.2295e-06
1.81553e-06
1.39007e-06
-2.95439e-41
9.33459e-12
-2.19266e-12
3.98468e-09
2.70539e-07
-1.14257e-07
2.01909e-13
-1.91002e-14
-3.04061e-15
1.98816e-15
-1.55485e-16
-1.41312e-16
1.21172e-18
6.97684e-18
6.82787e-19
-1.38126e-19
-3.68069e-20
-1.28846e-21
5.45256e-22
8.99927e-23
2.14938e-24
-1.09085e-24
-1.57042e-25
-5.97757e-27
1.20899e-27
2.13233e-28
1.22925e-29
-6.54385e-31
-1.79762e-31
-1.47698e-32
-1.52473e-34
1.13471e-34
1.31177e-35
6.15386e-37
-2.13963e-38
-5.67618e-39
3.07336e-11
3.03075e-11
5.04982e-06
-0.00734108
-5.3043e-40
1.84678e-30
5.10545e-06
5.63596e-35
1.47977e-33
-0.000126951
-4.49042e-40
1.56169e-32
-2.70719e-31
-4.06691e-31
2.2363e-30
1.68771e-30
5.43167e-30
-9.16728e-28
2.55474e-27
2.44156e-27
6.50385e-27
-1.10909e-40
-8.84529e-41
1.60846e-25
-4.52029e-25
-1.53659e-23
4.75182e-23
4.16165e-22
-1.63036e-20
6.63942e-20
9.49764e-19
3.26364e-18
-2.45008e-17
1.98401e-16
1.42102e-15
1.71956e-15
5.25062e-14
3.75904e-13
8.07978e-13
-8.95478e-13
1.16293e-12
-5.01858e-12
5.26783e-12
-2.59464e-11
1.10931e-10
1.41134e-10
-4.49939e-10
-2.69141e-09
-4.96567e-09
-1.34065e-09
7.11028e-08
3.27454e-07
9.00683e-07
1.95915e-06
-9.45868e-39
-3.97297e-39
-1.0181e-32
-1.41115e-32
3.69026e-32
1
0.38339
1
1
1
1
1
1
1
1
1
1
1
1
1
1
1
1
1
1
1
1
1
1
1
1
1
1
1
1
1
1
1
1
1
1
0.999999
0.999999
1
0.999999
1
1
1
1
1
1
1
1
1
1.00001
0.999989
0.999995
0.999965
0.99997
0.999965
0.999955
1.00001
0.999978
1.00009
1.00005
1.00026
1.00019
1.00043
1.0004
1.00045
1.00054
0.999936
1.00034
0.998586
0.999513
0.996045
0.997595
0.991987
0.994383
0.985558
0.989252
0.976039
0.981153
0.962492
0.969533
0.943633
0.952877
0.919933
0.93116
0.891595
0.905104
0.857485
0.873163
0.818712
0.835677
0.775266
0.794496
0.72794
0.748452
0.678195
0.699785
0.623826
0.647176
0.569877
0.591475
0.517518
0.539227
0.463311
0.48552
0.411472
0.431684
0.362258
0.381482
0.316393
0.334641
0.27376
0.290333
0.235365
0.250417
0.199286
0.213204
0.168261
0.179803
0.140931
0.151361
0.116396
0.12541
0.0961132
0.103426
0.0784036
0.0848783
0.0633245
0.068747
0.0509615
0.0554455
0.0407217
0.0444619
0.0322333
0.0352388
0.0254778
0.0279035
0.0197841
0.0217828
0.0153894
0.0168945
0.0118387
0.013051
0.0090553
0.0100131
0.00690202
0.00764028
0.00523794
0.0058167
0.0039191
0.00435715
0.00294592
0.00327723
0.00218613
0.00244269
0.00160347
0.00179546
0.00119077
0.00132829
0.000862739
0.00097018
0.000627324
0.000702548
0.00045356
0.00050969
0.000327538
0.000369237
0.000234479
0.000264237
0.000167939
0.000190074
0.000117916
0.000133815
8.42188e-05
9.52449e-05
5.9646e-05
6.78546e-05
4.16785e-05
4.74782e-05
2.90477e-05
3.30047e-05
2.04385e-05
2.33688e-05
1.40735e-05
1.61952e-05
0.000126296
0.000292128
0.000347145
0.000322973
0.756643
-4.66298e-26
1.84463e-25
4.64377e-39
-9.66114e-39
-1.85128e-10
-7.55449e-10
4.2664e-06
4.71521e-06
5.64473e-06
2.76884e-06
3.9419e-06
4.42834e-39
7.27956e-39
1.88498e-34
2.95178e-33
-9.197e-41
-1.00364e-40
-7.90959e-40
1.97278e-13
4.08633e-13
-0.00272339
-0.00153449
4.81992e-39
-3.64773e-40
-1.49708e-41
-4.46171e-37
-5.78564e-37
-5.10766e-37
6.98923e-06
-5.82915e-11
1.37468e-11
6.6659e-22
2.61863e-22
-1.82289e-05
1.04404e-05
2.00755e-09
-2.06242e-19
-8.7896e-20
1.26165e-09
9.46251e-09
2.53332e-12
-1.47218e-12
8.19648e-18
2.81553e-18
3.00056e-06
-1.3935e-16
-4.03133e-17
-4.01362e-12
-5.60376e-13
4.69577e-14
-1.6932e-14
2.44047e-15
5.41846e-16
-2.55018e-16
-2.01456e-17
9.73907e-18
2.52897e-18
-2.771e-20
-1.01131e-19
-1.02388e-20
5.828e-22
2.67411e-22
2.1649e-23
-1.22176e-24
-5.05287e-25
-3.8561e-26
8.33206e-28
6.04417e-28
5.97593e-29
9.64019e-31
-4.26897e-31
-5.90189e-32
-2.76727e-33
1.69718e-34
4.28911e-35
3.31623e-36
5.34259e-38
-1.35543e-38
5.22834e-11
-1.78776e-39
5.7992e-06
-4.93598e-16
-6.98265e-16
-1.20224e-15
4.62065e-14
1.75013e-13
1.9112e-15
2.63909e-15
9.57337e-06
0.935175
1.33516e-36
-6.51352e-37
6.87908e-35
-0.00740284
5.97649e-09
0.96961
-5.98391e-26
-1.56221e-39
0.80381
-1.70251e-34
-3.71106e-30
-1.37064e-29
2.06524e-28
-2.59491e-25
-2.62616e-25
0.0569193
-7.01739e-25
0.202537
4.99961e-24
1.75527e-23
-3.52948e-22
3.47951e-21
1.84629e-20
-3.34891e-19
-2.34734e-18
4.65797e-18
1.46648e-17
-7.75323e-16
1.37842e-15
-1.16641e-14
-1.48365e-13
-7.36382e-13
1.25575e-13
-2.36023e-13
5.29983e-12
-1.41815e-11
9.19105e-12
1.38557e-11
1.37224e-10
9.63879e-12
-1.51795e-09
-4.7186e-09
-3.9668e-09
1.93606e-08
1.6797e-07
5.61151e-07
1.34089e-06
7.81381e-10
-7.70529e-06
-2.00856e-05
-3.86177e-06
-6.53718e-37
7.04991e-05
3.362e-06
0.266977
2.11709e-06
9.60687e-07
3.42379e-07
7.09462e-08
-2.9579e-09
-5.82278e-09
-2.8503e-09
-4.06324e-10
1.70382e-10
1.14718e-10
-2.69338e-11
3.26552e-12
-3.8958e-12
9.00412e-13
-8.35008e-13
7.34657e-13
3.91383e-13
1.24172e-15
2.17763e-16
-1.51879e-38
-1.12016e-38
2.56516e-36
4.04387e-35
1.10594e-21
2.59531e-34
-1.54667e-33
-5.22698e-32
-4.86073e-31
-6.2505e-31
4.81816e-29
6.35903e-28
2.23272e-27
-2.81531e-26
-5.01014e-25
-2.21293e-24
1.43991e-06
5.92442e-07
1.71859e-07
1.66359e-08
-5.0881e-09
-5.14181e-09
-1.53065e-09
5.48233e-11
1.53492e-10
8.81228e-12
1.00333e-11
-1.55968e-11
5.99529e-12
-4.22073e-13
2.3548e-13
-7.33709e-13
-1.55833e-13
-0.000567361
-0.00980062
-1.31809e-14
-7.82539e-16
7.32736e-18
6.68274e-18
-2.442e-18
-3.99544e-19
1.1117e-20
-3.6588e-16
4.31244e-21
-4.11802e-22
1.21725e-23
-1.19277e-29
-1.69733e-34
-3.77984e-30
-5.41812e-39
-3.33076e-38
3.63064e-37
1.13202e-35
1.21758e-34
2.28358e-34
-1.1215e-32
-1.76212e-31
-1.0201e-30
7.26497e-30
1.94665e-28
1.50967e-27
-1.63448e-27
-1.32563e-25
-1.30125e-24
-8.53047e-25
3.87499e-17
4.58058e-15
7.86252e-23
-3.52673e-20
7.87422e-23
-1.93595e-12
3.34078e-19
-1.27744e-14
1.51001e-17
-9.28052e-15
-3.67859e-14
1.60762e-17
-2.24528e-19
-7.19098e-21
1.75072e-22
1.40641e-23
-2.65563e-17
2.85021e-18
1.05564e-18
9.59122e-20
-1.66906e-20
2.99407e-22
-1.48758e-23
-1.04108e-27
-1.53472e-29
1.01444e-30
1.5409e-35
2.85384e-28
5.73765e-24
5.59715e-14
-2.2925e-05
-2.80516e-12
0.000244632
1.00755
1.00503
1.00848
1.00124
1.00397
0.999701
1.00032
0.999651
0.999415
0.999889
0.999679
1.00001
0.99995
1.00002
1.00003
1.00001
1.00002
1
1
0.999999
0.999998
0.999999
0.999999
1
1
1
1
1
1
1
1
1
1
1
1
1
1
1
1
1
1
1
1
1
1
1
1
1
1
1
1
1
1
1
1
1
1
1
1
1
1
1
1
1
1
1
1
1
1
1
1
1
1
1
1
1
1
1
1
1
1
1
1
1
1
1
1
1
1
1
1
1
1
1
1
1
1
1
1
1
1
1
1
1
1
1
1
1
1
1
1
1
1
1
1
1
1
1
1
1
1
1
1
1
1
1
1
1
1
1
1
1
1
1
1
1
1
1
1
1
1
1
1
1
1
1
1
1
1
1
1
1
1
1
1
1
1
1
1
1
1
1
1
1
1
1
1
1
1
1
1
1
1
1
1
1
1
1
1
2.79964e-18
-3.91657e-10
-8.66404e-37
-3.14582e-13
1.10506e-37
-3.02201e-41
3.51255e-28
6.79938e-23
-3.18959e-08
-7.64065e-26
1.54347e-22
1.75728e-22
1.99896e-19
-2.50587e-22
-2.61404e-14
1.69639e-13
2.6541e-13
3.97736e-13
5.13707e-18
3.47535e-15
-9.64917e-18
1.51945e-18
1.93293e-14
1.15044e-13
-3.18614e-14
-5.73076e-17
-4.74925e-17
7.7193e-23
-1.04818e-15
4.91573e-15
-1.08279e-15
3.86796e-21
-1.51026e-16
-1.6582e-16
4.31396e-12
-1.85537e-12
9.95785e-19
3.0087e-18
8.42235e-19
5.18892e-18
6.78392e-18
4.10874e-06
-2.70066e-20
-7.04803e-34
2.07365e-22
1.71299e-22
3.23334e-22
-3.71666e-17
2.02292e-06
5.48655e-24
-3.6049e-25
-1.11922e-25
-9.16284e-27
1.04695e-28
1.16181e-28
1.20097e-29
2.66134e-31
-8.23897e-32
-1.10843e-32
-3.16799e-33
-2.61388e-33
-2.70062e-21
-1.74721e-21
1.73454e-35
6.91157e-36
5.68932e-37
4.42469e-37
-7.7013e-11
0.568575
0.243387
7.32422e-06
-9.6429e-16
-1.3072e-14
-2.02585e-34
7.85465e-16
-0.00767335
-5.70426e-30
-1.43775e-08
2.95334e-06
4.45141e-06
7.62363e-39
6.04617e-24
-1.8941e-39
-1.752e-34
-5.01256e-34
-1.62749e-29
4.56933e-28
-4.64828e-25
0.0253249
-3.59515e-25
-6.57832e-25
6.89043e-24
-1.00029e-29
-4.8757e-29
-4.99765e-20
-6.59369e-20
2.10044e-23
1.19963e-22
-1.8221e-23
1.26664e-23
8.91749e-22
4.96476e-21
2.21233e-20
-5.04492e-19
-3.26478e-18
5.94456e-18
-4.09291e-17
1.29605e-38
1.88093e-39
1.88766e-16
-9.862e-16
9.90686e-16
-1.43875e-14
-2.02534e-12
-4.57336e-12
-1.5286e-12
1.74083e-15
-3.5225e-16
-1.94269e-13
-1.10627e-12
-1.78599e-13
4.21509e-14
7.16209e-12
-1.88963e-11
7.71789e-12
4.12962e-11
1.95591e-10
-5.78837e-11
-2.44179e-09
-7.07765e-09
-5.54206e-09
3.66713e-08
2.73899e-07