/*--------------------------------*- C++ -*----------------------------------*\
  =========                 |
  \\      /  F ield         | OpenFOAM: The Open Source CFD Toolbox
   \\    /   O peration     | Website:  https://openfoam.org
    \\  /    A nd           | Version:  7
     \\/     M anipulation  |
\*---------------------------------------------------------------------------*/
FoamFile
{
    version     2.0;
    format      ascii;
    class       volScalarField;
    location    "0.7";
    object      T;
}
// * * * * * * * * * * * * * * * * * * * * * * * * * * * * * * * * * * * * * //

dimensions      [0 0 0 1 0 0 0];

internalField   nonuniform List<scalar> 
5936
(
0.509388
0.913124
0.999003
0.982342
1.00586
1.01594
1.00206
1.00701
1.00021
1.00101
0.999887
0.999757
0.99995
0.999843
0.999998
0.999979
1
1
0.999999
0.999998
0.999999
0.999996
0.999999
0.999998
1
1
1
1
1
1
1
1
1
1
1
1
1
1
1
1
1
1
1
1
1
1
1
1
1
1
1
1
1
1
1
1
1
1
1
1
1
1
1
1
1
1
1
1
1
1
1
1
1
1
1
1
1
1
1
1
1
1
1
1
1
1
1
1
1
1
1
1
1
1
1
1
1
1
1
0.116255
-0.00308433
-0.000220626
4.08817e-05
-3.12622e-07
4.17018e-07
-4.23437e-09
-1.40026e-08
2.90322e-09
-1.13601e-11
-6.94455e-11
1.11436e-11
-5.13075e-13
-1.72105e-13
5.36263e-14
-3.61235e-15
-2.1521e-15
1.00899e-16
7.5405e-17
5.08944e-18
-5.58741e-19
-1.03074e-19
-4.68354e-21
3.57202e-22
-1.4589e-38
1.77695e-22
7.39323e-22
1.83874e-19
2.15637e-18
-6.539e-19
6.83052e-16
1.54787e-14
4.00924e-14
-2.03216e-13
5.2295e-12
6.63074e-11
-2.02921e-10
-1.44121e-09
1.03812e-08
6.80748e-08
-1.71983e-07
6.51364e-07
-3.59506e-06
9.81203e-06
-2.2156e-05
5.79157e-05
-0.00011684
0.00013793
0.000775992
0.00163587
1
1
1
1
1
1
1
1
1
1
1
1
1
1
1
1
1
1
1
1
0.999999
0.999999
1
1
1.00001
1
0.999993
0.999999
0.999992
0.999992
1
0.999997
1.00002
1.00001
1.00006
1.00005
1.00003
1.00004
0.99979
0.999867
0.999537
0.999613
0.999893
0.999748
1.00129
1.00076
1.00324
1.00251
1.00366
1.00356
0.999751
1.00124
0.986416
0.990929
0.95996
0.968623
0.917527
0.931411
0.858167
0.87703
0.784346
0.806992
0.698538
0.724752
0.604143
0.632425
0.50934
0.537567
0.416057
0.443427
0.332761
0.3569
0.259188
0.280658
0.195917
0.214153
0.145781
0.160156
0.105151
0.116766
0.0739353
0.082692
0.0516776
0.0579557
0.0349085
0.0396208
0.023394
0.0267441
0.0149821
0.0175125
0.00970277
0.0114875
0.00622245
0.00742135
0.00334696
0.00202274
0.00407927
1.3652e-22
0.00118103
0.0134562
-0.00159039
6.86186e-05
7.16026e-06
1.01485e-07
1.83368e-07
-3.61289e-08
7.27177e-10
1.13982e-09
-1.85498e-10
1.81501e-12
3.65555e-12
-7.40344e-13
5.90101e-14
1.35084e-14
-4.81441e-15
-4.14245e-16
1.35852e-16
2.60102e-17
-8.45328e-20
-2.86472e-19
-2.72809e-20
-4.57436e-23
-0.000922382
2.20366e-22
0.00152451
-6.40683e-22
-3.26794e-20
-4.02538e-19
-8.76688e-18
-2.2932e-17
-4.03489e-15
-4.29981e-14
9.85286e-14
-5.44333e-13
-2.5804e-11
-6.05143e-11
1.02165e-09
-1.87894e-09
-2.73984e-08
-5.4707e-08
3.13682e-07
-1.75327e-06
9.55558e-06
-2.0236e-05
8.2708e-06
-2.98237e-05
-7.24573e-05
0.000596823
0.000131136
0.0664675
1.9839e-06
0.457247
0.0001441
3.03963e-05
6.54726e-07
5.36439e-07
-9.96346e-08
6.9086e-10
3.44337e-09
-4.95762e-10
-5.80055e-12
1.11503e-11
-2.06572e-12
1.44363e-13
4.11935e-14
-1.53686e-14
-1.48813e-15
4.61881e-16
9.34898e-17
6.82724e-19
-9.85732e-19
-1.03988e-19
-1.0376e-21
5.72426e-22
-1.83768e-20
-1.78613e-19
-6.11703e-18
1.07243e-17
-2.89372e-15
-3.44507e-14
5.30413e-14
-9.10369e-13
-2.61059e-11
-7.99765e-11
9.04536e-10
-1.24996e-09
-2.06706e-08
-4.60123e-08
3.38328e-07
-1.90425e-06
9.69362e-06
-2.09259e-05
1.11666e-05
-3.83564e-05
-5.7724e-05
0.000720137
-5.04704e-22
1.14995e-06
4.37154e-09
-4.18441e-08
7.51349e-09
1.17184e-10
-2.15454e-10
2.80955e-11
-8.85627e-13
-5.42609e-13
1.54643e-13
-1.1507e-14
-7.15272e-15
3.5024e-16
2.54084e-16
2.02721e-17
-1.7285e-18
-3.71158e-19
-1.96123e-20
1.01521e-21
1.34045e-19
1.08585e-18
-6.92518e-18
4.82227e-16
1.13664e-14
4.16224e-14
-2.25772e-14
5.62289e-12
6.91399e-11
-1.30199e-10
-1.50348e-09
8.51644e-09
5.49949e-08
-1.68029e-07
5.38577e-07
-2.79891e-06
8.77233e-06
-2.30862e-05
5.40914e-05
-0.000127104
0.00021822
0.000988429
-0.0055644
-0.00532448
-8.63675e-22
0.596807
-0.00118086
0.957427
1.0026
0.985737
1.00456
1.0082
1.00136
1.00401
0.999967
1.00053
0.999869
0.999794
0.999989
0.999958
1.00002
1.00005
1.00001
1.00003
1
1.00001
0.999998
0.999998
0.999999
0.999998
1
1
1
1
1
1
1
1
1
1
1
1
1
1
1
1
1
1
1
1
1
1
1
1
1
1
1
1
1
1
1
1
1
1
1
1
1
1
1
1
1
1
1
1
1
1
1
1
1
1
1
1
1
1
1
1
1
1
1
1
1
1
1
1
1
1
1
1
1
1
1
-2.77247e-21
0.00151943
6.23973e-05
0.260823
-5.70121e-06
5.20627e-08
2.91928e-07
-5.98189e-08
1.72335e-09
1.46983e-09
-2.63149e-10
1.45859e-11
4.07368e-12
-1.21409e-12
1.44955e-13
3.32575e-14
-8.79219e-15
-1.70159e-15
2.43526e-17
3.23436e-17
2.23486e-18
-9.41435e-20
-2.82288e-20
-1.45388e-21
1.75647e-19
-0.00316853
-0.00458952
-0.0032785
6.57504e-23
0.00232192
0.00361336
-3.68931e-06
-8.98205e-06
-1.32075e-06
0.532986
6.89722e-19
-4.87121e-18
4.17729e-16
1.30565e-14
8.14977e-14
-1.07108e-13
5.90889e-12
1.01851e-10
-5.13619e-11
-2.69174e-09
1.06724e-08
8.28818e-08
-1.73135e-07
3.83326e-07
-1.87444e-06
5.47254e-06
-2.25515e-05
6.82593e-05
-0.000184335
0.00050597
0.00138463
0.00242491
0.0517236
0.189634
0.0225263
-9.55505e-05
-0.000690296
4.39733e-05
1.58816e-05
-6.93584e-06
1
1
1
1
1
1
1
1
1
1
1
1
1
1
1
1
1
1
0.999999
0.999999
1
1
1
1
0.999994
0.999999
0.999994
0.999992
1
0.999995
1.00001
1.00001
1.00005
1.00005
1.00001
1.00006
0.999774
0.999873
0.999573
0.999585
0.999959
0.999647
1.00126
1.0006
1.00299
1.0024
1.00335
1.00387
0.999382
1.00233
0.986153
0.993702
0.959923
0.97343
0.918016
0.937236
0.859917
0.885856
0.785558
0.817712
0.699606
0.734697
0.607159
0.644845
0.511748
0.548628
0.419293
0.454614
0.335363
0.366382
0.262212
0.289046
0.199453
0.222532
0.14826
0.166431
0.107418
0.121556
0.0759634
0.0869101
0.0527301
0.0604551
0.0358854
0.0414445
0.024383
0.0282019
0.0161081
0.0188041
0.0111656
0.0131919
0.780431
-8.84157e-22
0.830481
-3.56852e-21
-4.58572e-14
-4.65803e-14
4.15288e-05
-7.15974e-21
-9.43699e-22
6.71132e-14
7.68231e-07
-1.96769e-08
-2.12191e-08
4.30452e-09
-1.11163e-10
-7.83982e-11
1.79447e-11
-1.51447e-12
-1.97497e-13
1.13783e-13
-3.05582e-15
-4.77892e-15
-3.78283e-16
6.37178e-17
1.01507e-17
2.38252e-19
-7.34519e-20
-7.23458e-21
1.7354e-19
-3.41907e-15
-2.98792e-15
-8.21678e-18
-9.51361e-18
-1.92679e-19
-1.6575e-17
-7.4241e-20
6.7544e-17
1.37296e-14
1.42715e-06
4.51389e-14
-7.79292e-13
-3.22135e-11
-1.56426e-10
1.12818e-09
-2.21054e-10
-2.77967e-08
-1.1221e-07
6.1267e-07
-3.26686e-06
1.65484e-05
-3.78367e-05
3.25512e-05
-0.000104197
1.26813e-05
0.00126725
-1.15599e-07
2.21403e-13
-2.73501e-12
-1.72082e-20
1.39057e-11
0.00719454
-2.9316e-12
0.000532408
-0.000202717
7.35246e-05
-2.87811e-05
9.26707e-06
-2.84765e-06
5.77819e-07
-2.3161e-07
8.16389e-08
1.13735e-08
-2.6612e-09
-8.17559e-11
-5.78045e-21
-8.22763e-20
-8.01385e-20
8.01835e-18
8.50405e-17
-1.03995e-16
-4.96467e-15
-1.82414e-14
1.04435e-13
0.00141234
-2.36923e-05
-9.76897e-05
2.7749e-05
-3.67806e-05
1.63288e-05
-3.24045e-06
6.12054e-07
-8.72298e-08
-3.04057e-08
-9.45308e-10
1.21642e-09
-1.61749e-10
-3.9815e-11
-1.50806e-12
6.17198e-17
-2.46283e-20
-1.67471e-19
1.31063e-18
3.1735e-17
1.26405e-16
-1.37707e-15
-1.31022e-14
4.82173e-15
2.69124e-13
-7.77883e-13
-1.42883e-12
3.73276e-11
-2.35802e-10
3.92028e-10
8.41361e-09
-6.17587e-08
7.19225e-08
4.98479e-14
-4.96509e-10
4.34364e-09
-5.18164e-09
8.474e-07
7.39911e-19
1.15249e-10
5.74387e-16
8.4228e-12
4.90492e-14
8.0514e-05
-5.29451e-14
0.994132
1.00615
1.00363
1.00319
1.00652
1.00017
1.00137
0.999567
0.999319
0.99981
0.999466
0.999986
0.999885
1.00002
1.00003
1.00001
1.00003
1
1
0.999999
0.999998
0.999999
0.999998
1
1
1
1
1
1
1
1
1
1
1
1
1
1
1
1
1
1
1
1
1
1
1
1
1
1
1
1
1
1
1
1
1
1
1
1
1
1
1
1
1
1
1
1
1
1
1
1
1
1
1
1
1
1
1
1
1
1
1
1
1
1
1
1
1
1
1
-3.00001e-15
3.00233e-11
1.53127e-10
0.00897049
-5.9236e-19
1.44845e-14
-1.38962e-12
8.40366e-07
5.41094e-07
1.65142e-06
-5.15405e-08
-1.60188e-08
4.05368e-09
0.00103385
-3.52724e-10
0.00506211
-4.30211e-11
3.51195e-11
4.35388e-21
1.94901e-12
-2.47445e-12
-3.54178e-12
-3.47457e-12
0.00235871
2.06297e-13
6.0447e-14
-3.86112e-15
-1.69385e-15
-7.36044e-17
1.69679e-17
2.11843e-18
4.32937e-20
-3.64605e-06
-7.59864e-07
8.34115e-10
-2.07396e-10
-3.25821e-20
-3.61094e-19
1.10643e-13
8.57359e-14
4.06477e-14
-1.17122e-17
7.84565e-12
1.21682e-14
1.29549e-14
-5.23256e-14
-1.13254e-17
-2.90929e-17
0.000171361
0.000193265
-1.55206e-12
1.07614e-11
3.92457e-16
-3.38127e-15
-4.36109e-11
-5.2803e-11
1.68902e-10
1.32092e-10
-4.23087e-09
1.12151e-08
1.04279e-07
-1.85851e-07
1.05373e-08
3.18719e-07
-7.23925e-07
-1.80749e-05
6.56843e-05
-0.000236937
0.000169242
0.00100514
2.42689e-07
2.55358e-08
1
1
1
1
1
1
1
1
1
1
1
1
1
1
1
1
0.999999
0.999999
1
0.999999
1
1
0.999996
1
0.999995
0.999994
0.999996
0.999993
1.00001
1
1.00005
1.00004
1.00003
1.00007
0.999814
0.999905
0.999601
0.999613
0.999858
0.999595
1.00096
1.00039
1.00261
1.00206
1.00343
1.00379
1.00035
1.00309
0.988924
0.995693
0.9656
0.977645
0.925531
0.94526
0.870107
0.894945
0.800156
0.830712
0.715623
0.75098
0.623057
0.660011
0.528606
0.565438
0.435293
0.471832
0.348861
0.38079
0.274719
0.301893
0.210773
0.234584
0.157108
0.176048
0.114299
0.129611
0.0810718
0.0926321
0.0565567
0.0649016
0.0383082
0.0443431
0.0259091
0.0297115
0.0174644
0.0201195
-2.68983e-10
-5.96144e-10
-1.81918e-10
0.00345273
0.00524056
-1.01413e-17
-6.22451e-21
4.42655e-11
1.83141e-11
-0.00209076
-9.0015e-21
0.92558
7.76909e-07
0.009478
-9.60151e-21
-8.25835e-13
-1.61127e-13
0.00247604
3.10933e-09
-1.24337e-07
-6.15858e-08
-5.54244e-08
3.90623e-09
1.0644e-11
3.29589e-13
1.63369e-13
8.27122e-15
-3.71481e-15
-5.05563e-16
1.86579e-17
6.88969e-18
4.69554e-19
2.00765e-19
0.00947254
0.00383239
-1.09002e-05
-1.1325e-05
-2.85685e-10
-2.76477e-10
0.959572
1.49977e-16
-3.43267e-16
6.48877e-10
1.46757e-09
1.25184e-09
1.31237e-08
1.41139e-09
-3.60858e-08
-1.78305e-07
9.84614e-07
-4.8867e-06
2.44488e-05
-5.73557e-05
5.91932e-05
-0.000208411
0.000120242
0.0767339
0.0425133
0.0127039
6.30078e-18
8.82674e-07
2.95548e-05
-1.961e-05
-0.000278691
7.8459e-05
-2.88487e-05
5.14045e-06
-1.13858e-06
2.93172e-07
2.09916e-19
2.61988e-19
-0.000201792
5.39362e-05
-5.69916e-05
-0.00337853
0.000562474
-0.00375685
2.49226e-05
0.684452
-5.0193e-06
1.00671e-06
-1.45789e-07
1.665e-18
1.90006e-17
-4.09707e-18
-1.55941e-15
-7.65582e-15
4.24302e-14
-1.44305e-09
-2.43943e-20
-0.000220651
-0.000990867
0.000205258
1.55853e-16
0.78693
-2.48883e-20
3.70832e-13
3.54249e-17
-3.48955e-16
-2.14551e-20
-4.43772e-15
8.09193e-09
-3.03462e-15
1.80066e-13
2.0252e-19
9.38902e-11
-3.80815e-08
-2.30492e-12
5.48259e-16
1.81649e-13
-4.14054e-09
-2.79495e-07
1.08117e-07
0.322933
-1.20811e-11
1.0091
1.00853
1.01706
1.00223
1.00742
0.999796
1.00081
0.999654
0.999394
0.999897
0.999686
1.00001
0.999964
1.00002
1.00003
1.00001
1.00002
0.999999
1
0.999999
0.999998
1
0.999999
1
1
1
1
1
1
1
1
1
1
1
1
1
1
1
1
1
1
1
1
1
1
1
1
1
1
1
1
1
1
1
1
1
1
1
1
1
1
1
1
1
1
1
1
1
1
1
1
1
1
1
1
1
1
1
1
1
1
1
1
1
1
1
-2.37679e-06
2.01846e-20
-4.06807e-08
4.19535e-18
-5.87675e-09
2.81471e-16
-6.8865e-08
6.03821e-14
0.00765793
1.48961e-18
-2.36645e-10
-1.31027e-10
4.44043e-10
-1.786e-12
3.40075e-05
-1.04681e-16
0.00365173
2.66171e-19
1.54187e-13
1.43587e-13
1.62702e-13
-5.80454e-09
-1.89565e-15
-4.2596e-16
-3.56866e-16
-1.13694e-17
9.52632e-19
-0.000358134
-4.45674e-10
4.07012e-10
3.33299e-09
0.0055108
-2.65504e-18
8.19398e-14
0.000166277
9.88313e-12
-3.16288e-15
-3.32236e-12
-4.50069e-12
0.873027
-1.58206e-07
1.26024e-08
-4.182e-08
0.211792
3.49297e-18
3.79292e-18
-2.6229e-07
-2.83417e-07
1.82321e-19
6.2796e-19
-2.86878e-18
-8.36175e-07
4.86802e-06
3.54304e-05
-8.14744e-05
8.911e-05
3.77976e-05
-0.000364165
0.000523687
7.49305e-07
-1.38839e-17
3.07302e-16
1
1
1
1
1
1
1
1
1
1
1
1
1
1
0.999999
1
1
0.999999
1
1
0.999998
1
0.999995
0.999996
0.999993
0.999992
1
0.999994
1.00005
1.00004
1.00004
1.00008
0.999848
0.999947
0.999615
0.999658
0.99975
0.999555
1.00069
1.00014
1.00231
1.00169
1.00356
1.00363
1.00145
1.00372
0.991901
0.997754
0.97127
0.982701
0.934613
0.95401
0.881921
0.906492
0.814828
0.845672
0.731562
0.768072
0.640438
0.678074
0.546562
0.585889
0.45208
0.490262
0.365115
0.39873
0.288674
0.318275
0.222345
0.247423
0.167328
0.187781
0.122488
0.139134
0.0872851
0.100012
0.0611045
0.0703263
0.0413335
0.0481894
0.0274505
0.0318798
0.0177001
0.0202482
1.18499e-09
1.32195e-09
-5.7942e-09
0.00188757
0.00198538
0.00377951
-6.74248e-06
3.27473e-06
-1.06098e-05
-9.12711e-06
2.19638e-16
-2.75407e-15
-0.000256726
0.000481147
-1.31712e-17
-1.30932e-17
-3.67656e-17
6.1561e-09
6.47939e-09
7.95407e-09
1.39636e-07
6.02409e-07
-2.4682e-08
-3.38952e-13
-1.45494e-12
3.24004e-14
3.13123e-19
7.4899e-18
0.000386236
0.000200572
9.16714e-07
0.00938902
-2.56006e-15
-1.14548e-15
0.0143133
2.89319e-13
-7.15093e-06
3.69793e-11
0.00532746
-6.54623e-17
5.23219e-11
4.46612e-19
-4.75212e-08
-0.000325033
1.47469e-14
-1.04027e-07
-1.16268e-15
1.57953e-06
4.40585e-11
1.60537e-11
-3.21701e-08
7.80222e-15
0.0140439
1.45936e-07
5.1381e-14
2.03071e-09
2.69827e-10
-8.35039e-06
-1.99213e-05
1.88942e-15
2.52234e-13
0.97501
-2.48249e-12
0.658389
1.25903e-11
2.999e-16
4.95605e-16
4.70612e-09
2.14814e-10
-4.48964e-10
3.64131e-09
0.739487
1.42394e-08
4.90981e-05
1.00093
1.36198e-07
1.45192e-06
0.0211096
-1.32891e-05
-4.82942e-06
-4.83664e-10
-6.15763e-10
-5.96861e-10
1.25815e-13
5.50047e-14
-2.26457e-07
1.38887e-18
-5.5402e-14
9.01423e-14
1.52337e-06
-0.00115442
-0.000199005
-2.00098e-13
-5.36548e-12
-0.00506771
-0.00383963
-6.69212e-11
-5.44465e-11
1.40503e-07
0.91765
-3.30302e-12
-3.46891e-15
8.54435e-05
-8.35041e-05
-5.0552e-07
-5.99985e-06
-1.92405e-05
-3.6008e-15
-8.09039e-06
1.78188e-07
1.00927
1.00429
1.00996
1.0005
1.00288
0.999622
0.999815
0.999768
0.999512
0.999959
0.999821
1.00002
1
1.00001
1.00003
1
1.00001
0.999999
0.999999
0.999999
0.999998
1
0.999999
1
1
1
1
1
1
1
1
1
1
1
1
1
1
1
1
1
1
1
1
1
1
1
1
1
1
1
1
1
1
1
1
1
1
1
1
1
1
1
1
1
1
1
1
1
1
1
1
1
1
1
1
1
1
1
1
0.705216
0.0124361
2.97531e-15
9.2186e-10
-5.56658e-16
6.70767e-14
5.15956e-14
0.00712412
0.0115219
2.04348e-06
-3.76859e-12
-8.64885e-08
-1.71087e-10
-2.21412e-17
-0.000189896
-8.57328e-06
6.02812e-09
-1.1521e-07
0.323259
-9.2065e-17
-7.43735e-17
9.73263e-09
2.3173e-05
-3.92999e-13
-1.05713e-13
-2.73808e-16
-2.64027e-16
-3.75657e-05
-5.17939e-10
-5.10738e-10
-3.52175e-16
-9.63943e-16
1.07389e-14
1.2861e-16
-3.85491e-15
-4.7706e-05
-0.0092957
0.00117501
7.34665e-19
-2.47205e-18
-1.38714e-17
-6.4383e-19
-7.20365e-08
2.16986e-06
4.5521e-05
-2.64702e-05
0.0676589
-3.91104e-07
-2.72841e-07
1.02943e-14
-0.00541554
0.000585025
-4.83284e-14
0.0712045
0.0315684
0.109768
-0.000112105
1.74539e-06
0.882953
0.720368
1.34953e-05
4.90882e-05
1.00153e-13
1.21148e-13
1
1
1
1
1
1
1
1
1
1
1
1
1
0.999999
0.999999
1
1
0.999999
1
0.999997
0.999998
0.999992
0.999993
0.999999
0.999989
1.00004
1.00003
1.00006
1.00008
0.999899
0.999996
0.999658
0.999725
0.999675
0.999531
1.0004
0.999911
1.00195
1.00125
1.00358
1.00334
1.00248
1.00418
0.994786
0.999969
0.977107
0.987616
0.945296
0.96309
0.896489
0.921073
0.831312
0.861922
0.751387
0.788077
0.661988
0.70062
0.568638
0.608615
0.474862
0.514517
0.385265
0.421958
0.30577
0.337829
0.237576
0.264353
0.17994
0.202411
0.132447
0.150614
0.0956992
0.109852
0.0670105
0.0778762
0.045458
0.0535384
0.0300868
0.035932
0.0179606
5.27704e-05
0.000174644
1.2435e-05
-1.54547e-05
-1.96932e-05
4.9976e-16
4.27067e-16
1.6536e-14
1.23299e-14
-0.000591325
-0.000316212
-4.12561e-08
1.90401e-07
-1.14848e-12
1.09009e-05
6.92619e-12
1.68835e-13
2.04742e-09
-1.68422e-17
-0.000608028
0.00348029
-6.33492e-16
-0.0110106
-0.00772794
-4.68172e-14
0.0223898
0.00586219
0.00944225
-1.85056e-06
-2.39682e-06
0.18927
1.0005e-15
-5.26018e-11
2.00941e-11
-9.27329e-06
4.95185e-07
2.64069e-07
-6.47825e-10
8.34249e-10
0.00011886
0.000119717
1.43756e-08
1.2306e-08
5.18305e-14
1.66213e-05
-1.37105e-05
-0.000116891
5.21329e-14
3.37055e-13
-4.68818e-12
-5.91137e-07
9.54358e-10
6.95665e-10
4.95346e-14
1.18528e-11
2.32379e-10
-2.3149e-10
-8.99163e-10
1.00726
0.992244
3.27043e-19
6.83512e-15
-3.39566e-07
-6.72346e-18
-7.36053e-18
-1.84162e-17
0.239597
-2.53554e-05
-5.03961e-06
6.2817e-15
-3.45301e-08
-9.43116e-08
-1.42154e-08
1
1
-7.69795e-09
-7.75886e-09
7.71497e-09
1.60905e-11
1.07562e-06
1.14914e-06
1.21486e-06
-0.000322716
1.33065e-13
8.08611e-14
1.53274e-13
-1.77089e-12
-1.46033e-12
0.00122679
-0.00301171
-0.00762379
-0.00187655
1.37245e-11
5.43694e-12
-4.2677e-14
-3.18073e-18
-3.97104e-17
5.45656e-16
1.06217e-08
6.66559e-09
-4.51555e-08
0.00109966
-8.07932e-11
-6.84283e-11
0.926392
0.00367161
-3.38959e-14
-0.000141671
1.00652
1.0016
1.0051
0.999788
1.00058
0.99964
0.999493
0.999871
0.999658
1
0.999934
1.00002
1.00003
1.00001
1.00002
1
1
0.999999
0.999998
0.999999
0.999998
1
1
1
1
1
1
1
1
1
1
1
1
1
1
1
1
1
1
1
1
1
1
1
1
1
1
1
1
1
1
1
1
1
1
1
1
1
1
1
1
1
1
1
1
1
1
1
1
1
1
1
1
1
1
1
0.461913
1
-6.69999e-06
-4.83821e-06
-0.000861667
0.00661649
4.08411e-16
0.000129124
4.57439e-14
-3.52458e-12
-4.63692e-15
2.49389e-06
-4.42175e-06
0.441637
1.20617e-14
2.3526e-15
6.57445e-17
-2.62508e-14
-4.77097e-10
-0.000214702
-0.000915887
-1.56884e-12
2.81642e-07
1.61384e-11
0.00237349
3.88886e-11
6.86748e-11
4.06743e-11
-1.22626e-16
0.000193266
0.000256988
0.480209
-1.20217e-16
-2.17369e-16
0.980044
3.14135e-15
2.10018e-15
-3.79454e-08
0.145562
2.76774e-10
3.01462e-10
-6.34476e-10
-5.79076e-12
-4.37226e-12
0.380168
0.00989872
1.11652e-11
9.28651e-09
-4.06551e-08
1
1.0092
1.01154
1.00152
-5.31508e-07
6.30539e-08
2.67752e-06
-7.49217e-05
-0.000151713
0.811422
0.898621
0.516607
6.78124e-05
0.0001272
2.31432e-09
6.73565e-09
8.17273e-10
5.47472e-05
-6.20544e-05
-3.24018e-14
4.56477e-14
1
1
1
1
1
1
1
1
1
0.999999
0.999999
1
1
1
1
0.999998
0.999999
0.999993
0.999994
0.999994
0.999987
1.00003
1.00001
1.00007
1.00008
0.999956
1.00003
0.999717
0.999804
0.999624
0.99955
1.00013
0.999729
1.00151
1.0008
1.00333
1.00285
1.00313
1.00423
0.997337
1.00175
0.983149
0.991829
0.956287
0.971586
0.911181
0.935131
0.849852
0.878935
0.774229
0.810343
0.685686
0.726215
0.594112
0.634441
0.50126
0.542476
0.409704
0.447753
0.328257
0.361162
0.255821
0.284865
0.194922
0.218219
0.145705
0.165315
0.105583
0.121229
0.0754503
0.0871957
0.0522707
0.0616055
0.0350116
0.0422374
0.0149786
0.0148036
0.0213614
-1.37503e-16
-4.6151e-15
2.98536e-14
3.16764e-14
7.46717e-05
0.00225202
2.21338e-07
-4.75182e-07
2.69451e-05
5.99035e-05
-1.68617e-08
7.26692e-17
-2.20238e-05
-1.43014e-05
3.93741e-12
-1.40125e-12
-0.000198665
-1.06888e-05
-8.76114e-06
-8.59707e-10
-4.22655e-10
-0.000119361
3.74248e-11
3.65037e-11
6.41551e-14
-3.10584e-12
-3.89042e-12
1.06495e-14
0.227186
-1.33824e-16
-5.36658e-17
2.28602e-07
8.02061e-05
3.26363e-05
1.05768e-06
9.21094e-07
1.51083e-09
-0.00126084
0.00588775
-4.89906e-12
1.78038e-11
0.00599381
0.0102394
-4.44045e-13
-1.65469e-07
3.96451e-05
1.31524e-09
7.70637e-12
2.78724e-17
-1.91415e-17
-8.7461e-18
-7.68109e-08
-6.56451e-08
1
-2.28282e-14
-6.07329e-12
0.0898452
0.017623
1.52225e-08
1.16079e-08
0.0266659
0.000143365
0.000315527
9.11759e-05
1.99379e-13
2.17678e-13
1.09992e-13
3.75908e-14
3.68777e-13
-0.00493101
-0.00382035
-8.44657e-11
-7.03073e-11
3.67597e-08
-7.35992e-08
7.82082e-16
8.59453e-16
2.26758e-16
-1.27379e-05
-4.04022e-06
2.43189e-05
-1.43681e-12
-6.32852e-11
-4.3764e-10
-2.75462e-13
2.63611e-15
-1.86401e-12
1.00315
1.00032
1.00206
0.999611
0.999788
0.999759
0.999524
0.999949
0.99981
1.00002
0.999991
1.00002
1.00003
1
1.00001
0.999999
1
0.999999
0.999998
1
0.999999
1
1
1
1
1
1
1
1
1
1
1
1
1
1
1
1
1
1
1
1
1
1
1
1
1
1
1
1
1
1
1
1
1
1
1
1
1
1
1
1
1
1
1
1
1
1
1
1
-6.31602e-15
-0.000134842
1.32001e-14
-7.33003e-14
2.09629e-05
0.0197361
-2.73556e-08
-0.00118587
-8.15206e-06
-0.000373861
0.000169748
0.00945269
0.0266717
0.0146163
0.0154621
0.0206097
7.05427e-15
6.74163e-15
7.4951e-05
3.10908e-07
0.000133717
8.86841e-05
-0.000168481
9.65706e-05
-1.46392e-17
1
-3.82606e-13
-2.98653e-13
1
1
1
1
1
1
0.999999
0.999999
1
1
1
1
1
1
0.999994
0.999997
0.99999
0.999985
1.00002
1
1.00007
1.00007
1
1.00007
0.999791
0.999887
0.999617
0.999613
0.999904
0.9996
1.00103
1.00038
1.00292
1.00224
1.00355
1.00403
0.99974
1.00299
0.988417
0.995794
0.965976
0.978771
0.926874
0.948655
0.868803
0.89751
0.798004
0.831327
0.714556
0.753787
0.622423
0.662998
0.531164
0.570807
0.437773
0.477712
0.351186
0.386794
0.276508
0.307176
0.21147
0.237434
0.159724
0.179926
0.117842
0.133885
0.0846125
0.0967666
0.0608603
0.0702878
0.0427435
0.033797
0.0516547
-9.07863e-09
1.23361e-08
8.58743e-07
-8.22621e-07
1.87906e-06
5.38261e-15
1.79026e-14
0.00430662
0.00960987
-7.38804e-07
-1.01935e-08
-0.00742322
-0.00937783
5.85709e-05
-0.000114266
-0.000530627
-0.00130696
-3.94037e-10
6.251e-09
-8.89568e-06
-1.12714e-05
-1.78277e-17
-4.69044e-17
-2.44019e-17
0.800147
-5.13548e-12
1.00668
-5.82027e-15
-3.13028e-15
1
1.00742
1.0082
-3.49991e-10
-9.00187e-11
-0.000511817
-9.22124e-09
1
4.84603e-11
1.5362e-14
-5.6539e-08
-8.54313e-14
-2.45162e-12
-0.000186776
1
1.01123
7.51596e-11
3.51303e-11
-0.00306925
-2.31797e-09
1.39816e-09
0.000170291
0.000111068
1.32815e-06
-7.92276e-11
-5.09286e-13
3.25609e-06
2.78045e-06
7.20159e-16
-0.00162016
1.64484e-11
-9.75431e-11
2.66616e-07
2.53759e-07
-1.12019e-12
2.25753e-15
-2.05739e-17
0.000694603
1.23219e-16
4.14578e-09
-1.52646e-07
0.967021
0.990011
0.880757
-8.76659e-08
-1.21875e-07
-2.41891e-12
0.406815
0.52581
0.186207
5.85234e-09
5.00859e-09
-8.25499e-10
-1.11808e-12
-6.83853e-12
-8.06543e-12
1.81513e-11
3.70468e-09
-3.15502e-08
-3.6388e-14
-1.33103e-05
-1.85779e-05
6.84361e-14
0.000257581
0.000234589
-6.83743e-07
4.14874e-11
7.59774e-11
0.00038957
3.71602e-10
3.50161e-10
-0.00714446
-0.00703087
4.62209e-05
-6.60366e-16
-6.33375e-15
2.8473e-09
4.4049e-10
1.18992e-15
1.31872e-15
-1.32038e-16
-8.22101e-06
2.17181e-09
-1.80216e-09
1.81119e-06
8.25493e-07
4.2372e-05
4.89968e-16
0.00406573
7.05281e-05
-0.000173617
1.11092e-11
3.51982e-11
6.48965e-12
1.00543
-9.93261e-09
-9.74873e-09
1.00132
1.00409
0.999727
1.00042
0.999636
0.999493
0.999871
0.999672
1
0.999931
1.00002
1.00002
1.00001
1.00002
1
1.00001
0.999999
0.999999
0.999999
0.999999
1
1
1
1
1
1
1
1
1
1
1
1
1
1
1
1
1
1
1
1
1
1
1
1
1
1
1
1
1
1
1
1
1
1
1
1
1
1
1
1
1
1
1
1
1
1
1
-6.68143e-13
5.3187e-05
1.00185
-8.32599e-15
-8.50167e-05
0.000429476
-2.1671e-14
4.25827e-10
4.26901e-10
-1.75903e-14
2.00549e-15
-9.18329e-13
-1.32794e-12
2.10674e-08
8.28188e-09
2.46784e-07
8.07347e-17
2.6882e-06
7.00554e-05
6.76062e-05
0.00739332
-1.2121e-14
3.5877e-15
3.67751e-15
4.72304e-17
1.15892e-07
6.26693e-07
-5.30146e-08
-7.20429e-14
-4.79483e-14
-7.86888e-10
0.000205239
-6.68563e-05
0.00197915
0.00736481
1
1
8.15015e-13
5.38011e-13
1
1
1
1
0.999999
1
1
1
1
1
1
1
0.999996
0.999999
0.999989
0.999987
1.00001
0.999996
1.00006
1.00005
1.00004
1.00008
0.999863
0.999948
0.999654
0.999692
0.999744
0.999541
1.00061
1.00007
1.00238
1.00169
1.00345
1.00354
1.00122
1.00336
0.992696
0.998561
0.973646
0.984629
0.940131
0.957998
0.888307
0.913835
0.819629
0.851607
0.740874
0.776385
0.651797
0.691421
0.557637
0.596969
0.465686
0.503853
0.377461
0.412682
0.298348
0.32873
0.231284
0.257883
0.174529
0.196286
0.128919
0.146066
0.0929644
0.105292
0.067159
0.0745178
8.10942e-13
-5.7403e-13
6.0612e-07
3.24311e-06
-0.00509821
-0.00953309
-0.000208184
-0.000207825
-0.00143166
0.00163537
1.17269e-08
-3.37024e-06
6.7571e-05
1.00993
1.0101
3.81175e-14
1.68548e-08
-9.07113e-09
-2.33767e-08
-9.2404e-15
6.78005e-09
-0.000187642
-5.04587e-09
-9.61767e-09
1.01004
0.0540166
1.43709e-11
8.88201e-12
6.04359e-12
-0.00202113
-9.78244e-10
-9.49571e-10
1.98758e-09
4.25136e-11
1.00859e-06
-4.16575e-08
-3.40182e-11
-2.67791e-13
-0.000344298
-5.14914e-09
2.64842e-07
4.52387e-10
1.67103e-15
2.44054e-07
-6.82959e-13
3.83431e-15
0.97733
0.948336
-0.000994306
0.415644
0.0277565
0.0358195
-2.46074e-13
-1.30484e-05
-1.33885e-05
0.015191
0.0146113
5.33309e-16
-3.94058e-16
-5.14094e-14
0.0315322
-0.00159579
-6.39626e-06
-8.59495e-11
4.8431e-10
-8.80314e-12
-9.90854e-07
-4.64993e-16
9.88738e-09
0.00943255
0.775529
0.856433
0.520652
-2.29431e-13
0.120649
7.4069e-09
-1.60194e-12
-9.88561e-12
0.0217402
0.0234754
0.0303531
0.000297381
0.000351134
-2.4702e-05
-1.10642e-05
-2.37011e-10
9.66945e-05
-9.40161e-15
-1.42518e-14
-1.41672e-06
-0.0052235
0.000158259
-0.00840622
-0.00933471
-1.20795e-07
-9.08363e-08
-0.00101012
-5.24663e-10
-5.51953e-10
0.000307758
0.000276427
-6.34707e-09
-6.81277e-06
-3.43605e-06
5.53568e-15
2.49971e-07
-9.43728e-07
1.7292e-09
9.66611e-09
-1.51761e-10
-1.04364e-11
2.03419e-08
2.6429e-08
1.00836
-7.69244e-06
-0.000315547
1.00287
1.00695
1.00006
1.00149
0.999541
0.999561
0.999767
0.999516
0.999963
0.999843
1.00002
1
1.00002
1.00003
1
1.00001
0.999999
1
0.999999
0.999998
1
0.999999
1
1
1
1
1
1
1
1
1
1
1
1
1
1
1
1
1
1
1
1
1
1
1
1
1
1
1
1
1
1
1
1
1
1
1
1
1
1
1
1
1
1
1
6.19013e-09
-0.00164042
0.203942
0.00017319
-1.08273e-09
-1.1976e-09
-9.12425e-16
-1.59307e-15
1.34214e-12
1.73082e-06
1.27044e-06
-1.36049e-06
-1.47051e-13
-1.03632e-09
-2.40237e-11
9.54678e-06
-3.13939e-13
-3.36071e-13
0.0466562
1.09701e-12
1.4865e-12
-1.45424e-12
1.98042e-11
1.7535e-11
-3.52137e-15
-3.66038e-15
-6.22291e-10
7.10131e-09
2.54972e-09
-0.000434231
-0.00167085
0.012619
4.13388e-05
-6.55738e-06
-1.93426e-05
3.42383e-06
2.86036e-05
-0.000288386
-1.41766e-14
-1.21834e-14
1
1
1
1
1
1
1
0.999999
1
1
1
1
0.999998
1
0.999987
0.999988
1
0.99999
1.00005
1.00004
1.00006
1.00008
0.999921
1
0.999689
0.999763
0.99962
0.99952
1.00027
0.999843
1.00194
1.00124
1.00333
1.00312
1.00225
1.00361
0.996056
1.00051
0.980479
0.98938
0.950797
0.966668
0.903616
0.926719
0.840713
0.870049
0.764191
0.798667
0.676705
0.715011
0.583975
0.622065
0.490061
0.528396
0.399215
0.434834
0.318612
0.350206
0.248693
0.276053
0.189156
0.211074
0.141001
0.159413
0.0998784
0.114761
0.0682407
0.0781436
7.49583e-12
6.01693e-12
-3.13198e-10
-7.43107e-10
-2.26939e-10
-0.00384498
-0.00122037
0.000246452
-0.000386064
2.04231e-06
-1.90827e-05
0.00343602
-0.00547394
-0.000167152
0.000194462
0.00459603
0.0125662
0.000104926
5.81154e-05
0.988895
-3.3762e-08
-9.44358e-08
-1.72893e-08
2.20215e-07
-1.86893e-05
-2.79409e-05
-1.88487e-05
-0.000224927
-5.34071e-10
-6.65669e-09
-1.33935e-05
2.61644e-09
2.37619e-09
-4.25543e-09
1.99525e-11
1.98545e-11
-5.61702e-10
-0.00162851
-0.00136977
1.83174e-07
0.141512
-0.00865425
2.26657e-07
-1.28306e-06
1.01093
-9.54851e-15
0.0517273
4.94357e-13
-2.36886e-13
5.68871e-07
1.05611e-06
5.07983e-09
0.000103696
0.0278305
4.69198e-07
-4.70702e-13
2.17569e-08
2.95133e-08
-1.22186e-09
-8.99499e-11
0.000255707
-0.000274371
0.000526559
8.29886e-14
5.64977e-10
-1.05877e-09
-5.17763e-10
-9.59261e-10
6.11107e-09
-1.50192e-08
-7.69595e-10
-5.00651e-14
5.08372e-11
4.4725e-11
2.83598e-11
6.20545e-11
2.72299e-11
0.00405194
0.0440114
0.398475
0.201112
0.0234685
0.0227045
1.01332
0.000210731
-1.8024e-14
-1.09749e-11
-1.32594e-13
-4.28472e-14
-0.0083109
-0.0137785
9.06144e-07
7.17237e-07
1.89065e-14
1.20398e-14
1.2721e-14
0.943215
0.905741
2.40048e-12
1.88756e-12
0.000357631
0.000429944
3.26006e-06
-1.07708e-05
-2.78015e-06
1.00546
2.12232e-11
2.33982e-11
0.0341012
0.0323777
9.97821e-07
-5.61481e-10
-1.9577e-10
1.00554
1.00098
1.00383
0.999559
1.00004
0.999625
0.999374
0.99989
0.999693
1.00001
0.999959
1.00002
1.00003
1.00001
1.00002
1
1
0.999998
0.999998
0.999999
0.999998
1
1
1
1
1
1
1
1
1
1
1
1
1
1
1
1
1
1
1
1
1
1
1
1
1
1
1
1
1
1
1
1
1
1
1
1
1
1
1
1
1
4.34611e-08
2.87651e-07
-0.00802306
-0.00320816
-3.5131e-10
-8.55884e-08
0.0341599
-0.000144417
1.28949e-06
-1.499e-14
-1.61759e-14
-2.5712e-14
0.960607
4.70638e-12
-1.21512e-09
8.8306e-09
4.58305e-08
1.53594e-06
2.26151e-06
1.11967e-14
0.108714
2.71106e-09
2.87621e-09
1.05652e-12
6.01503e-13
-5.38835e-11
5.92447e-10
-3.96765e-12
-1.30688e-11
1.12711e-09
-1.86197e-10
1.03677e-08
5.36151e-09
0.00922726
-0.00231069
0.722887
0.786149
0.474099
0.000161441
3.70029e-05
0.0412228
3.11637e-05
-8.87213e-10
-0.00042873
-0.00022724
-3.272e-14
-2.86372e-14
1
1
1
1
1
0.999999
1
1
1
1
1
1
0.999988
0.99999
0.999996
0.999987
1.00004
1.00002
1.00006
1.00007
0.999965
1.00003
0.999747
0.999829
0.999589
0.999552
1.00008
0.999716
1.00159
1.00092
1.00302
1.00266
1.00269
1.00355
0.998252
1.00171
0.985326
0.992989
0.959109
0.973106
0.916598
0.936917
0.858172
0.885355
0.784534
0.817201
0.699404
0.734989
0.60698
0.644585
0.510717
0.548755
0.420303
0.455267
0.338797
0.370648
0.265612
0.293234
0.202173
0.224296
0.151404
0.168413
0.109772
0.124733
1.2425e-11
1.21576e-11
-0.000472468
-0.000973337
0.0087322
-0.00102091
-0.00244208
-2.38388e-05
2.1074e-05
0.0222844
0.00242452
0.00019478
-0.00097452
-6.43573e-14
-5.56023e-14
1.00759
0.987439
0.0204935
0.0360049
-1.56797e-05
-0.000399509
0.0450939
1.14733e-06
-1.47882e-07
1.74124e-06
-6.19967e-10
-7.79693e-09
-1.78171e-05
3.37225e-07
-2.52894e-05
0.000137211
3.81217e-12
0.000315915
2.61424e-11
0.0487572
0.0459212
-8.29235e-09
-2.21193e-09
-0.0097382
1.80241e-11
2.38466e-11
-7.23916e-11
-1.99756e-05
0.138454
0.335944
0.0776274
2.83971e-12
-4.50099e-08
-1.33115e-11
2.16404e-11
-0.000273617
0.000249315
-1.16104e-09
-3.58971e-12
6.14477e-14
1.01194
4.01793e-10
-4.69476e-10
0.872111
0.820733
0.0210504
-2.45688e-05
3.10587e-11
4.11872e-11
1.01534
-1.14331e-13
1.16224e-09
4.58927e-09
3.34216e-11
0.00114671
-0.00828852
0.000143479
0.0748824
-7.04818e-08
-1.29528e-07
-5.85535e-08
1.29829e-06
3.18535e-13
2.54736e-13
3.40501e-12
-6.33107e-06
-2.59243e-05
0.00026282
0.000466894
3.13503e-05
-1.64892e-06
9.32759e-07
1.3531e-06
5.49237e-07
2.06481e-08
3.00032e-08
-1.03709e-13
0.000143605
-2.79813e-08
-2.2023e-09
2.45271e-09
2.84798e-09
1.01175
-1.13612e-13
-6.7061e-12
3.30424e-11
-5.042e-09
-1.25302e-10
-1.89749e-14
0.000102345
4.55643e-05
1.00272
0.999805
1.00106
0.999435
0.99927
0.999748
0.99943
0.999977
0.999851
1.00003
1.00002
1.00002
1.00004
1
1.00001
0.999998
1
0.999999
0.999998
1
0.999999
1
1
1
1
1
1
1
1
1
1
1
1
1
1
1
1
1
1
1
1
1
1
1
1
1
1
1
1
1
1
1
1
1
1
1
1
1
-4.25309e-11
-2.5272e-11
-0.00202083
-3.60421e-05
0.000272811
-0.0100082
-0.00525977
-2.91318e-14
-1.94638e-05
-7.58963e-06