/*--------------------------------*- C++ -*----------------------------------*\
  =========                 |
  \\      /  F ield         | OpenFOAM: The Open Source CFD Toolbox
   \\    /   O peration     | Website:  https://openfoam.org
    \\  /    A nd           | Version:  7
     \\/     M anipulation  |
\*---------------------------------------------------------------------------*/
FoamFile
{
    version     2.0;
    format      ascii;
    class       volScalarField;
    location    "0.3";
    object      T;
}
// * * * * * * * * * * * * * * * * * * * * * * * * * * * * * * * * * * * * * //

dimensions      [0 0 0 1 0 0 0];

internalField   nonuniform List<scalar> 
46572
(
0
0
0
0
0
0
0
0
0
0
0
0
0
0
0
0
0
0
0
0
0
0
0
0
0
0
0
0
0
0
0
0
0
0
0
0
0
0
0
0
0
0
0
0
0
0
0
0
0
0
0
0
0
0
0
0
0
0
0
0
0
0
0
0
0
0
0
0
0
0
0
0
0
0
0
0
0
0
0
0
0
0
0
0
0
0
0
0
0
0
0
0
0
0
0
0
0
0
0
0
0
0
0
0
0
0
0
0
0
0
0
0
0
0
0
0
0
0
0
0
0
0
0
0
0
0
0
0
0
0
0
0
0
0
0
0
0
0
0
0
0
0
0
0
0
0
0
0
0
0
0
0
0
0
0
0
0
0
0
0
0
0
0
0
0
0
0
0
0
0
0
0
0
0
0
0
0
0
0
0
0
0
0
0
0
0
0
0
0
0
0
0
0
0
0
0
0
0
0
0
0
0
0
0
0
0
0
0
0
0
0
0
0
0
0
0
0
0
0
0
0
0
0
0
0
0
0
0
0
0
0
0
0
0
0
0
0
0
0
0
0
0
0
0
0
0
0
0
0
0
0
0
0
0
0
0
0
0
0
0
0
0
0
0
0
0
0
0
0
0
0
0
0
0
0
0
0
0
0
0
0
0
0
0
0
0
0
0
0
0
0
0
0
0
0
0
0
0
0
0
0
0
0
0
0
0
0
0
0
0
0
0
0
0
0
-7.72113e-144
-1.30357e-144
-2.37818e-140
-2.94708e-140
-1.54406e-140
-1.85437e-140
-1.09716e-140
-1.05341e-140
4.55828e-138
-1.62905e-138
-4.92536e-135
2.47174e-135
-2.07333e-132
-6.75036e-133
-3.38993e-132
-2.37095e-133
-4.59161e-130
-4.26273e-130
-1.15899e-129
-1.32968e-129
-7.43635e-130
-8.40909e-130
-1.34037e-129
2.4383e-129
-1.09035e-128
-7.04327e-129
-2.59837e-128
-1.34919e-128
-2.26341e-128
4.50532e-128
-4.49908e-128
7.11741e-128
1.94369e-128
1.65865e-127
-4.03822e-130
9.64778e-128
-2.1659e-128
1.29216e-127
-2.73692e-128
6.40085e-128
-2.89136e-128
3.27188e-128
-4.53203e-127
1.28653e-127
-6.24036e-125
-6.8337e-125
-3.62692e-125
-3.4295e-125
-3.92495e-124
1.29624e-123
-5.09592e-123
-3.27399e-123
-6.73768e-123
-6.25173e-123
-8.54522e-123
-3.54244e-123
-1.12071e-122
9.57721e-123
-1.2084e-121
-1.36962e-121
-1.99147e-121
3.56589e-121
-6.26692e-121
-3.53365e-121
-4.44329e-121
-2.61653e-121
-3.77148e-121
1.74375e-121
-1.93533e-120
6.4266e-120
-3.02097e-119
-1.71886e-119
-1.97276e-118
-2.04153e-118
-7.96388e-118
-7.69767e-118
-5.42593e-118
-5.22401e-118
-3.73211e-118
-3.45319e-118
-1.33646e-117
-1.01465e-117
-2.35621e-117
-2.51263e-117
-1.53993e-117
-1.61713e-117
-1.21414e-117
-3.97897e-118
-2.43217e-117
-1.74738e-117
-2.19367e-117
-1.11829e-117
-1.67914e-117
-6.38806e-118
-2.70234e-117
3.81236e-117
-7.30879e-116
-5.85765e-116
-1.16536e-114
-7.18352e-115
-8.33561e-115
-5.25356e-115
-6.10009e-115
-4.00272e-115
-4.53371e-115
-2.74506e-115
-3.19436e-114
-2.1033e-114
-6.28999e-114
-6.45706e-114
-4.1298e-114
-4.14928e-114
-3.56146e-114
7.7904e-116
-9.47001e-114
-5.08933e-114
-1.17646e-113
-9.88572e-114
-1.41461e-113
-7.54086e-114
-1.71327e-113
2.02786e-113
-3.40362e-113
-1.14876e-113
-9.50576e-113
-4.02767e-113
-7.04231e-113
-3.52264e-113
-9.7468e-113
-8.82652e-113
-6.70761e-113
-5.99087e-113
-5.00445e-113
-3.09867e-113
-2.62363e-112
-2.70192e-112
-1.70165e-112
-1.69909e-112
-1.72255e-112
9.98718e-113
-4.49988e-112
-2.0017e-112
-5.32434e-112
-4.17742e-112
-4.79053e-112
-3.56343e-112
-3.88633e-112
-5.09671e-113
-4.71051e-112
-2.51809e-112
-4.4984e-112
1.80669e-112
-5.89088e-112
-2.44683e-112
-6.07426e-112
-4.37969e-112
-4.35976e-112
-2.74015e-112
-3.89274e-112
-3.00203e-112
-4.45174e-112
-3.91203e-112
-1.43242e-111
1.3182e-111
-5.366e-111
-4.52396e-111
-4.17384e-111
-1.45232e-111
-3.24986e-111
-1.24544e-111
-1.74841e-110
-9.3239e-111
-3.23103e-110
-3.16863e-110
-2.14061e-110
-2.05522e-110
-1.55385e-110
-9.9966e-111
-2.01271e-110
-1.58022e-110
-2.71895e-110
-1.85365e-110
-7.2015e-110
-3.67818e-110
-6.17711e-110
5.89176e-111
-4.85169e-110
-4.6984e-111
-4.11053e-110
8.79609e-111
-3.3579e-110
8.15605e-112
-6.67858e-110
-2.98779e-110
-5.04244e-110
-2.56467e-110
-1.74701e-109
-1.09457e-109
-3.01963e-109
-3.00655e-109
-1.99583e-109
-1.94787e-109
-1.4792e-109
-8.09135e-110
-1.97158e-109
-1.33927e-109
-1.98893e-109
-1.7281e-109
-1.57023e-109
-1.22721e-109
-1.231e-109
-5.55954e-110
-2.83095e-109
-2.74045e-109
-1.89011e-109
-1.79256e-109
-1.57958e-109
-1.52623e-109
-2.70357e-109
-2.61148e-109
-1.84033e-109
-1.77481e-109
-1.28864e-109
-1.06135e-109
-2.79592e-109
-2.9528e-109
-1.79215e-109
-1.8647e-109
-1.24183e-109
-9.39807e-110
-1.22303e-109
-9.83552e-110
-1.07894e-109
-9.88221e-110
-7.75474e-110
-7.0411e-110
-5.66574e-110
-4.14106e-110
-9.65171e-110
-1.02802e-109
-6.74895e-110
-5.38919e-110
-6.6743e-110
-5.73212e-110
-4.88965e-110
-4.35106e-110
-3.31275e-110
-2.83641e-110
-2.24059e-110
-1.83544e-110
-3.28622e-110
-3.13769e-110
-8.38456e-110
-5.52219e-110
-5.94603e-110
-3.8334e-110
-4.1792e-110
-2.78484e-110
-2.97638e-110
-2.02232e-110
-7.0373e-110
-5.3673e-110
-1.8534e-107
-2.3199e-107
9.01275e-106
1.82198e-105
-6.82683e-102
2.36305e-101
-7.89686e-102
1.14353e-101
1.6451e-101
-9.13468e-103
-4.77827e-95
4.04051e-97
-6.93906e-92
-3.71539e-92
-1.6822e-89
-2.06001e-89
-1.30156e-89
-1.30691e-89
-2.67953e-87
-4.62096e-18
-2.39618e-18
1.70429e-20
5.04697e-24
2.68531e-24
-3.03711e-27
-7.8312e-29
1.99285e-30
-2.30815e-32
-1.44699e-34
4.42177e-36
-2.46925e-38
-1.48368e-40
2.17706e-42
2.01186e-46
-7.71208e-47
3.86622e-49
-2.84196e-53
-6.22323e-54
-9.51334e-56
-1.52532e-58
5.90179e-60
9.45787e-63
-6.14003e-65
-5.87209e-67
-6.16411e-69
-2.78969e-71
-3.95133e-74
-1.49356e-77
-1.07038e-81
-5.61443e-18
0.0465785
0.079211
0.113036
0.145175
0.173238
0.191513
0.197896
0.197064
0.183327
0.159017
0.123118
0.0813206
0.0386626
0.00067276
-0.0283669
-0.0531325
-0.0658114
-0.0680526
-0.0654626
-0.0593763
-0.0513622
-0.0419604
-0.0317191
-0.0244685
-0.0177788
-0.0125221
-0.00865092
-0.00596943
-0.00395086
-0.00257664
-0.00163001
-0.00105734
-0.000665833
-0.000405173
-0.000244332
-0.000148004
-8.96208e-05
-5.26719e-05
-3.00793e-05
-1.74624e-05
-9.84229e-06
-5.51905e-06
-3.08303e-06
-1.65473e-06
-9.25059e-07
-5.05464e-07
-2.71652e-07
-1.46677e-07
-7.82069e-08
-4.07681e-08
-2.12195e-08
-1.11645e-08
-5.87919e-09
-3.01791e-09
-1.51744e-09
-7.7719e-10
-3.885e-10
-1.92978e-10
-9.6504e-11
-4.65951e-11
-2.33441e-11
-1.14508e-11
-5.54491e-12
-2.6766e-12
-1.30169e-12
-6.34135e-13
-3.0336e-13
-1.41245e-13
-6.77034e-14
-3.1665e-14
-1.46702e-14
-6.78215e-15
-3.17649e-15
-1.45179e-15
-6.65324e-16
-2.99896e-16
-1.38347e-16
-6.24769e-17
-2.88448e-17
-1.08082e-17
-6.71327e-18
-4.03258e-06
-1.36999e-06
-4.00517e-06
8.83685e-06
-2.18479e-06
-0.000387139
-0.000856467
0.000497358
0.00692369
0.0220806
0.0336644
0.0172637
1.73773e-05
-4.79189e-06
-6.84049e-06
-6.23776e-06
-5.13728e-06
-3.45346e-06
-3.96345e-06
-4.05114e-06
-1.16523e-05
1.40149e-05
-1.63937e-05
-2.86165e-05
-3.96855e-05
1.46502e-05
6.94713e-06
-9.09003e-06
7.15451e-06
-2.15321e-05
-6.14577e-06
-2.86426e-05
-2.39327e-05
-1.33226e-05
-3.75733e-05
1.44394e-05
-1.50795e-05
1.16196e-05
-1.23204e-05
-6.89122e-05
-3.92236e-05
-0.00026381
-0.000182565
-0.000517339
-0.000463579
-0.000722917
-0.000878792
-0.000614094
-0.00133882
0.000254166
-0.00163015
0.00221955
-0.00159414
0.00574341
-0.000714098
0.0113753
0.000953078
0.0200002
0.0037471
0.0317717
0.00696298
0.0395914
0.0155241
0.053864
0.0210555
0.0692645
0.0287366
0.0848386
0.0361458
0.101467
0.0441207
0.116719
0.0512168
0.131446
0.0564852
0.14331
0.06113
0.155619
0.0632829
0.164082
0.0653392
0.170309
0.0632923
0.174857
0.059499
0.177724
0.0571733
0.17833
0.0519916
0.177678
0.0467915
0.172751
0.0401648
0.165883
0.0295173
0.155747
0.0207448
0.143552
0.00806782
0.128933
-0.00541994
0.112643
-0.0187672
0.094194
-0.0327835
0.0755732
-0.0473185
0.0544142
-0.060623
0.0341371
-0.0741987
0.0152193
-0.0869412
-0.00154539
-0.0976228
-0.0181673
-0.10729
-0.0329686
-0.113791
-0.0426244
-0.118402
-0.0542677
-0.121118
-0.0595443
-0.121068
-0.0632952
-0.119183
-0.0675644
-0.116774
-0.0690316
-0.112693
-0.0667616
-0.106455
-0.0659332
-0.100302
-0.0630089
-0.0931186
-0.0593713
-0.0855737
-0.0547068
-0.0775773
-0.0500866
-0.0702358
-0.0457683
-0.0627641
-0.0404605
-0.055379
-0.0368892
-0.0490307
-0.0318624
-0.0425032
-0.0276171
-0.036609
-0.024228
-0.0317307
-0.0210108
-0.0272513
-0.0176627
-0.0229816
-0.0153108
-0.0195409
-0.0127233
-0.0162651
-0.0105204
-0.0134872
-0.00886487
-0.0112458
-0.00719107
-0.00915146
-0.00596645
-0.00756956
-0.00496766
-0.00626539
-0.0040591
-0.00511334
-0.00330759
-0.00415122
-0.00264994
-0.00333835
-0.00215145
-0.00269942
-0.00174189
-0.00217335
-0.00137192
-0.0017204
-0.00110911
-0.00137908
-0.000867628
-0.00108279
-0.00068009
-0.000848954
-0.000541412
-0.00067097
-0.000415209
-0.000517908
-0.000327117
-0.000407135
-0.000258268
-0.000320792
-0.000201177
-0.000249657
-0.000156287
-0.00019365
-0.00012041
-0.000149271
-9.281e-05
-0.000115288
-7.17331e-05
-8.88518e-05
-5.45316e-05
-6.77108e-05
-4.23553e-05
-5.21935e-05
-3.1835e-05
-3.94213e-05
-2.40645e-05
-2.9796e-05
-1.83955e-05
-2.2738e-05
-1.40187e-05
-1.72943e-05
-1.04351e-05
-1.29269e-05
-7.94753e-06
-9.79977e-06
-5.97349e-06
-7.36368e-06
-4.48161e-06
-5.52346e-06
-3.33862e-06
-4.12208e-06
-2.49481e-06
-3.08187e-06
-1.86949e-06
-2.30513e-06
-1.38168e-06
-1.70581e-06
-1.03806e-06
-1.27529e-06
-7.56779e-07
-9.33513e-07
-5.54536e-07
-6.84557e-07
-4.11665e-07
-5.07329e-07
-3.04768e-07
-3.75152e-07
-2.20877e-07
-2.72712e-07
-1.63629e-07
-2.01402e-07
-1.18195e-07
-1.45871e-07
-8.55531e-08
-1.05684e-07
-6.28086e-08
-7.73154e-08
-4.47542e-08
-5.53107e-08
-3.26744e-08
-4.0354e-08
-2.39211e-08
-2.95308e-08
-1.73311e-08
-2.13947e-08
-1.2534e-08
-1.54644e-08
-8.98842e-09
-1.1105e-08
-6.49313e-09
-8.02682e-09
-4.69965e-09
-5.7986e-09
-3.32582e-09
-4.11757e-09
-2.41274e-09
-2.97374e-09
-1.70415e-09
-2.10708e-09
-1.20935e-09
-1.49585e-09
-8.69182e-10
-1.07423e-09
-6.18849e-10
-7.64873e-10
-4.34692e-10
-5.38309e-10
-3.11424e-10
-3.84902e-10
-2.20837e-10
-2.72997e-10
-1.56529e-10
-1.93411e-10
-1.1033e-10
-1.36478e-10
-7.78853e-11
-9.64047e-11
-5.51827e-11
-6.82177e-11
-3.85756e-11
-4.77488e-11
-2.74008e-11
-3.38432e-11
-1.90199e-11
-2.35389e-11
-1.32478e-11
-1.64018e-11
-9.32456e-12
-1.15344e-11
-6.55705e-12
-8.10632e-12
-4.52539e-12
-5.60662e-12
-3.18145e-12
-3.93577e-12
-2.21289e-12
-2.73829e-12
-1.53834e-12
-1.90331e-12
-1.06553e-12
-1.31883e-12
-7.38324e-13
-9.15004e-13
-5.1332e-13
-6.35428e-13
-3.51235e-13
-4.35149e-13
-2.39531e-13
-2.96826e-13
-1.66742e-13
-2.06528e-13
-1.15288e-13
-1.42813e-13
-7.9766e-14
-9.8821e-14
-5.51673e-14
-6.83029e-14
-3.7434e-14
-4.64324e-14
-2.59124e-14
-3.20753e-14
-1.7562e-14
-2.17608e-14
-1.19047e-14
-1.47706e-14
-8.17188e-15
-1.01258e-14
-5.47715e-15
-6.79566e-15
-3.74812e-15
-4.65025e-15
-2.57375e-15
-3.19224e-15
-1.75212e-15
-2.17399e-15
-1.19134e-15
-1.47798e-15
-8.07632e-16
-1.0025e-15
-5.47211e-16
-6.7964e-16
-3.72429e-16
-4.61959e-16
-2.49179e-16
-3.09535e-16
-1.7005e-16
-2.10973e-16
-1.14533e-16
-1.42207e-16
-7.74573e-17
-9.6099e-17
-5.24982e-17
-6.50137e-17
-3.49731e-17
-4.32644e-17
-2.27157e-17
-2.81921e-17
-1.5436e-17
-1.92158e-17
-1.12013e-17
-7.3623e-18
-1.36543e-17
-2.01531e-39
-9.57087e-38
1.91959e-34
-7.25178e-32
-4.8629e-30
1.4637e-27
-4.23361e-26
7.42966e-24
-1.05586e-21
5.31803e-20
-7.38938e-19
1.02953e-19
-1.8233e-18
0
0
0
0
0
0
0
0
0
0
0
0
-2.89889e-39
-9.34749e-34
9.67207e-33
1.88705e-30
-1.27523e-29
-1.48583e-29
-1.35708e-29
-4.84651e-28
-1.94173e-27
-2.08988e-27
-2.66716e-27
-2.74953e-27
-2.4284e-27
-1.8247e-27
-1.43151e-27
-9.96858e-28
-2.18509e-28
-6.47584e-30
1.70572e-28
2.7985e-29
-1.82186e-28
-3.26922e-28
-4.23456e-28
-3.78797e-28
-3.11409e-28
-2.15116e-28
-1.25056e-28
-8.27769e-29
-4.19167e-29
-1.148e-29
4.13446e-30
1.07425e-29
2.15455e-29
2.34426e-29
1.65668e-29
1.32709e-29
6.89424e-30
6.02691e-31
-3.35904e-30
-5.0643e-30
-5.64846e-30
-4.19342e-30
-2.94229e-30
-1.72015e-30
-9.82752e-31
-4.10222e-31
-1.71284e-31
-6.80307e-32
3.30573e-32
2.24989e-32
1.48487e-32
1.27284e-32
1.0446e-32
9.22248e-33
5.20393e-33
2.97986e-33
1.90236e-33
1.00145e-33
4.82624e-34
2.36451e-34
1.10761e-34
3.62514e-35
1.19024e-35
4.89222e-36
-5.70506e-36
-4.71645e-36
-3.14715e-36
-2.19901e-36
-1.56321e-36
-1.25533e-36
-6.74163e-37
-3.65588e-37
-1.98324e-37
-1.003e-37
-4.72779e-38
-2.21094e-38
-1.07407e-38
-4.44995e-39
-1.80745e-39
-3.35213e-40
-1.43917e-40
-3.58988e-41
-1.47656e-41
1.92365e-42
1.20341e-41
1.77208e-41
8.97601e-42
-1.21584e-39
-3.34731e-87
2.15881e-21
8.91604e-22
-4.9139e-19
-1.7603e-19
3.09174e-20
8.35687e-23
-2.19264e-23
8.08009e-26
-3.05965e-27
1.9687e-29
1.45178e-31
-3.7981e-33
4.36833e-35
1.4732e-37
-3.95688e-39
6.97114e-42
1.84671e-43
-1.40049e-45
2.85989e-48
1.22162e-50
-4.925e-53
-7.88053e-55
-7.61502e-57
4.27409e-59
3.86578e-61
-3.83272e-64
-5.57894e-66
-6.40157e-68
-4.54439e-70
-1.27129e-72
-8.64504e-76
-1.68349e-79
-3.40202e-06
-3.39757e-84
0.0617757
0.0971412
0.12966
0.160365
0.18158
0.194982
0.198583
0.191016
0.17184
0.141407
0.103501
0.0616524
0.0203419
-0.0130131
-0.0422652
-0.0586307
-0.0656021
-0.0697729
-0.0631469
-0.0556045
-0.0456713
-0.035641
-0.027907
-0.0203968
-0.0146684
-0.0106239
-0.00711693
-0.00475182
-0.00315535
-0.00201417
-0.00131548
-0.000829437
-0.00050827
-0.000320048
-0.000190382
-0.000115441
-6.7743e-05
-3.90101e-05
-2.30607e-05
-1.28639e-05
-7.21293e-06
-4.07878e-06
-2.23944e-06
-1.2397e-06
-6.87931e-07
-3.65141e-07
-2.01571e-07
-1.0597e-07
-5.539e-08
-2.98146e-08
-1.5403e-08
-8.11616e-09
-4.16123e-09
-2.10152e-09
-1.09153e-09
-5.39878e-10
-2.69437e-10
-1.3518e-10
-6.65635e-11
-3.29198e-11
-1.64529e-11
-7.84901e-12
-3.90283e-12
-1.86526e-12
-9.09466e-13
-4.34125e-13
-2.03539e-13
-9.76794e-14
-4.5719e-14
-2.12666e-14
-1.0101e-14
-4.62309e-15
-2.1183e-15
-9.73446e-16
-4.39498e-16
-2.03206e-16
-9.17352e-17
-4.20973e-17
-2.03987e-17
-1.2996e-06
5.45227e-06
-8.58103e-06
2.52374e-07
1.14089e-05
-0.000146029
-0.000685149
-0.000618435
0.00288678
0.0131486
0.0104995
7.25287e-06
-5.35002e-06
-5.49497e-06
-6.07046e-06
-4.75475e-06
-3.97747e-06
-3.60811e-06
-2.70901e-06
4.23307e-07
4.3638e-30
-1.13095e-06
1.05493e-36
-2.51557e-34
-6.45707e-31
1.0379e-28
-8.4659e-27
4.8831e-25
2.68249e-23
1.01872e-21
3.41742e-34
0
0
0
0
0
0
0
0
0
0
0
-2.58706e-40
-1.7108e-36
1.97626e-33
3.27848e-32
-2.9241e-30
-1.81652e-29
-9.01442e-31
-9.69691e-29
-1.49328e-27
-1.9257e-27
-2.9651e-27
-2.98739e-27
-2.67783e-27
-2.34265e-27
-1.76809e-27
-1.22044e-27
-7.75107e-28
-1.97445e-28
1.51976e-29
6.0516e-29
-6.13118e-29
-2.64327e-28
-4.1303e-28
-4.00903e-28
-3.65738e-28
-2.64406e-28
-1.92733e-28
-9.76567e-29
-6.58893e-29
-2.97249e-29
-7.23968e-30
5.74011e-30
1.37092e-29
2.4273e-29
2.30172e-29
1.54923e-29
1.12934e-29
4.20445e-30
-1.29159e-30
-4.65135e-30
-5.15651e-30
-4.43533e-30
-3.85411e-30
-2.22456e-30
-1.38269e-30
-7.36275e-31
-3.06061e-31
-1.06096e-31
-3.91758e-32
2.88373e-32
1.7014e-32
1.42055e-32
1.18285e-32
8.9268e-33
6.90151e-33
3.83441e-33
2.34989e-33
1.37495e-33
7.70305e-34
3.21739e-34
1.79871e-34
8.06724e-35
2.91147e-35
8.48503e-36
2.49387e-36
-5.59174e-36
-3.74743e-36
-2.75344e-36
-1.97804e-36
-1.24878e-36
-9.05369e-37
-5.05701e-37
-2.68453e-37
-1.41828e-37
-7.07239e-38
-3.33688e-38
-1.51572e-38
-7.71938e-39
-3.12567e-39
-1.21648e-39
-2.40306e-40
-6.24305e-41
-2.38259e-41
-1.64292e-42
1.46115e-41
1.1895e-41
1.37601e-41
-2.21641e-41
-1.35224e-86
0
-6.59791e-27
3.56122e-29
4.10081e-31
-7.93473e-33
8.51058e-35
4.2859e-37
-8.38313e-39
8.34069e-42
4.16748e-43
-2.75091e-45
5.26573e-48
2.7202e-50
-9.3125e-53
-1.51304e-54
-1.67249e-56
8.06301e-59
8.12561e-61
-7.29771e-64
-1.10676e-65
-1.33341e-67
-9.79857e-70
-2.63884e-72
-1.82708e-75
-3.73945e-79
-9.52659e-84
0.0432906
0.0572694
0.0692909
0.0733466
0.0699819
0.0596225
0.0431867
0.020901
-0.00381241
-0.0364185
-0.0670404
-0.0943097
-0.113889
-0.125417
-0.128144
-0.122289
-0.112239
-0.0959345
-0.0809658
-0.0647391
-0.0495205
-0.0376574
-0.027407
-0.0194002
-0.0137741
-0.00921715
-0.00614784
-0.00406033
-0.0025924
-0.00167276
-0.0010547
-0.000645791
-0.000402315
-0.000239604
-0.000145116
-8.53477e-05
-4.91804e-05
-2.89029e-05
-1.62094e-05
-9.09431e-06
-5.11207e-06
-2.81604e-06
-1.55031e-06
-8.59261e-07
-4.57894e-07
-2.51235e-07
-1.32564e-07
-6.93475e-08
-3.7155e-08
-1.92046e-08
-1.01242e-08
-5.20228e-09
-2.63068e-09
-1.36236e-09
-6.76198e-10
-3.37027e-10
-1.69037e-10
-8.33809e-11
-4.11592e-11
-2.05513e-11
-9.83593e-12
-4.87107e-12
-2.32823e-12
-1.13583e-12
-5.42698e-13
-2.54904e-13
-1.22064e-13
-5.71954e-14
-2.66193e-14
-1.26159e-14
-5.77623e-15
-2.65172e-15
-1.21914e-15
-5.51177e-16
-2.54395e-16
-1.15018e-16
-5.26953e-17
-2.5291e-17
3.49068e-06
-8.46719e-07
1.71042e-05
-3.69539e-06
-0.00053495
-0.00142893
-0.00127884
0.00223833
-1.07952e-05
-1.24412e-05
-9.90442e-06
-1.03197e-05
-1.04898e-05
-1.06532e-05
-1.0784e-05
-1.0372e-05
-1.85026e-05
4.13173e-06
7.27081e-06
-7.54784e-30
3.06565e-27
-6.89828e-26
1.53655e-23
-2.1094e-21
0
0
0
0
0
0
0
0
0
0
8.84082e-43
6.80395e-37
2.81323e-33
-7.97902e-33
1.78004e-29
3.23085e-29
2.99067e-29
9.94915e-28
2.83948e-27
1.98966e-27
3.87203e-27
3.53453e-27
2.51981e-27
1.91027e-27
1.08646e-27
7.84315e-28
-4.75449e-29
1.9387e-28
1.67366e-28
3.21896e-28
4.9886e-28
5.02657e-28
5.83663e-28
3.1805e-28
2.08196e-28
1.28583e-28
7.26651e-29
7.34352e-29
2.27603e-29
6.43896e-30
5.35362e-30
-8.96993e-30
-1.20407e-29
-1.25577e-29
-1.31187e-29
-6.88349e-30
-4.44415e-30
6.15465e-30
4.69209e-30
2.64833e-30
1.49701e-30
7.65812e-31
4.34879e-31
2.09217e-31
-2.23086e-32
-1.01456e-31
-1.12791e-33
5.50761e-32
-6.71984e-33
4.86048e-32
2.09416e-32
1.05163e-32
8.34319e-33
1.83901e-33
3.52117e-33
1.61548e-33
7.2461e-34
5.56366e-34
2.77198e-34
1.48503e-35
3.68894e-35
2.53855e-36
-1.40557e-35
-8.99139e-36
-1.10221e-36
-8.69506e-36
-2.38251e-36
-1.45275e-36
-1.18151e-36
-5.49189e-37
-6.26204e-37
-3.19877e-37
-1.49357e-37
-9.01012e-38
-4.11607e-38
-1.93519e-38
-7.65776e-39
-4.15563e-39
-1.50754e-39
-3.907e-40
1.22743e-40
1.13654e-40
3.36751e-41
2.2695e-41
2.67994e-41
3.74801e-42
9.94303e-42
-3.68428e-41
-4.17224e-32
-4.42844e-34
9.61005e-36
-4.34788e-38
-3.5322e-40
4.22652e-42
4.14591e-45
-1.66156e-46
7.99153e-49
1.26818e-52
-1.132e-53
-1.98691e-55
-4.15307e-58
1.20308e-59
2.16685e-62
-1.21028e-64
-1.18286e-66
-1.25806e-68
-5.63548e-71
-8.2794e-74
-3.1875e-77
-2.55944e-81
0.0345679
0.0510002
0.0636471
0.0733461
0.0740744
0.0650412
0.0535469
0.0343258
0.00909682
-0.0203804
-0.0511013
-0.0805621
-0.104618
-0.119759
-0.128057
-0.12666
-0.117494
-0.103931
-0.0884936
-0.0733525
-0.057543
-0.0432564
-0.0325579
-0.0233906
-0.0164119
-0.0112202
-0.00764705
-0.00504148
-0.00328341
-0.00208014
-0.0013386
-0.000837946
-0.000510635
-0.000308525
-0.000186503
-0.000112467
-6.58048e-05
-3.77576e-05
-2.18622e-05
-1.23146e-05
-6.8761e-06
-3.8484e-06
-2.07477e-06
-1.15633e-06
-6.30904e-07
-3.39563e-07
-1.83035e-07
-9.73454e-08
-5.08367e-08
-2.65237e-08
-1.39391e-08
-7.32988e-09
-3.75626e-09
-1.8953e-09
-9.69474e-10
-4.83911e-10
-2.40505e-10
-1.20392e-10
-5.831e-11
-2.91591e-11
-1.43016e-11
-6.9325e-12
-3.34805e-12
-1.62517e-12
-7.91988e-13
-3.78178e-13
-1.76538e-13
-8.45135e-14
-3.95321e-14
-1.8352e-14
-8.47696e-15
-3.96644e-15
-1.81365e-15
-8.31575e-16
-3.75326e-16
-1.73019e-16
-7.81919e-17
-3.60216e-17
6.40002e-06
2.4686e-06
1.14077e-05
3.98525e-05
-0.000162162
-0.000962624
-0.00160166
-4.05911e-06
0.00591954
-1.03804e-05
-1.07035e-05
-1.03919e-05
-1.02875e-05
-1.03147e-05
-1.0609e-05
-8.08229e-06
-8.73775e-06
2.42741e-36
-1.68873e-33
-1.28539e-30
2.58861e-28
-2.22487e-26
1.28934e-24
2.96043e-23
4.5567e-21
0
0
0
0
0
0
0
0
0
0
-6.52177e-39
-1.02065e-33
-3.08788e-32
1.62691e-30
4.27971e-29
1.23175e-29
9.63731e-29
1.70725e-27
1.97005e-27
3.34359e-27
4.25528e-27
3.14601e-27
2.09059e-27
1.63419e-27
8.14806e-28
1.72538e-28
4.30047e-28
1.37164e-28
1.76151e-28
4.63518e-28
5.2225e-28
5.24699e-28
3.98826e-28
2.41447e-28
1.61606e-28
9.08547e-29
6.37812e-29
5.01947e-29
7.85967e-30
2.02338e-29
-2.0086e-30
-1.7031e-29
-2.83166e-30
-9.23486e-30
-7.12743e-30
-7.16961e-30
6.70477e-30
7.73267e-30
6.59918e-30
2.43724e-30
-1.56427e-30
1.22136e-30
4.87747e-32
2.78913e-31
-1.14777e-31
7.74246e-32
3.39955e-32
-6.12351e-33
5.55094e-32
2.90138e-32
9.00228e-33
7.3202e-33
1.53399e-33
5.44486e-33
2.54565e-33
9.91713e-34
9.1744e-34
3.84484e-34
1.18338e-34
-4.91911e-36
6.23124e-36
-2.23767e-35
-9.6085e-36
-1.03982e-38
-9.75196e-36
-2.92544e-36
-1.04359e-36
-9.85799e-37
-7.03194e-37
-9.31e-37
-3.94318e-37
-1.85062e-37
-1.25618e-37
-5.80558e-38
-2.80386e-38
-1.23563e-38
-5.46167e-39
-2.1499e-39
-7.22157e-40
2.16664e-40
1.03171e-40
5.67161e-41
2.109e-41
1.60871e-41
1.25356e-41
1.41556e-41
2.76792e-42
-5.31299e-23
-2.45333e-28
1.92564e-27
5.28276e-24
2.15443e-25
1.17383e-06
0.0249684
4.82117e-06
-1.27926e-05
-1.01419e-37
-1.77868e-31
0
0
0
0
0
0
0
0
0
0
0
0
0
0
0
0
0
0
0
0
0
0
0
0
0
0
0
0
0
0
0
0
0
0
0
0
0
0
0
0
0
0
0
0
0
0
0
0
0
0
0
0
0
0
0
0
0
0
0
0
0
0
0
0
0
0
0
0
0
0
0
0
0
0
0
0
0
0
0
0
0
0
0
0
0
0
0
0
0
0
0
0
0
0
0
0
0
0
0
0
0
0
0
0
0
0
0
0
0
0
0
0
0
0
0
0
0
0
0
0
0
0
0
0
0
0
0
0
0
0
0
0
0
0
0
0
0
0
0
0
0
0
0
0
0
0
0
0
0
0
0
0
0
0
0
0
0
0
0
0
0
0
0
0
0
0
0
0
0
0
0
0
0
0
0
0
0
0
0
0
0
0
0
0
0
0
0
0
0
0
0
0
0
0
0
0
0
4.55837e-06
0
0
0
0
0
0
0
0
0
0
0
0
0
0
0
0
0
0
0
0
0
0
0
0
0
0
0
0
0
0
0
0
0
0
0
0
0
0
0
0
0
0
0
0
0
0
0
0
0
0
0
0
0
0
0
0
0
0
0
0
0
0
0
0
0
0
0
0
0
0
0
0
0
0
0
0
0
0
0
0
0
0
0
0
0
0
0
0
0
0
0
0
0
0
0
0
0
0
0
0
0
0
0
0
0
0
0
0
0
0
0
0
0
0
-5.23655e-142
0
-1.82858e-138
-2.29271e-138
-3.80541e-138
1.14604e-137
-9.14046e-138
2.53129e-137
3.88671e-135
5.11244e-137
-1.49002e-132
2.57556e-132
-8.71237e-130
1.4444e-130
-9.87673e-130
5.4384e-131
-6.32024e-128
-6.86624e-128
-5.61447e-128
-5.44354e-128
-4.6681e-128
-2.90872e-128
-1.04384e-126
-8.66094e-127
-1.63164e-126
-1.46447e-126
-4.19563e-126
8.4836e-126
1.39003e-126
1.15003e-125
3.98377e-126
1.2324e-125
3.59413e-126
1.26558e-125
1.21899e-126
8.08774e-126
2.00887e-126
1.97604e-125
-4.38417e-127
1.20468e-125
-2.49113e-126
9.56179e-126
-9.06244e-126
3.02035e-125
-2.87781e-123
-2.6515e-123
-5.76782e-123
1.80941e-123
-4.51114e-121
-4.23879e-121
-8.23328e-121
-8.1859e-121
-5.90047e-121
-4.16513e-121
-1.91384e-120
5.30597e-121
-5.98137e-120
-5.46225e-120
-5.07476e-120
-2.97198e-120
-1.42073e-118
-1.3624e-118
-1.05071e-118
-8.82777e-119
-7.10512e-119
-5.81319e-119
-1.72468e-118
4.24407e-118
-1.95279e-117
-1.33763e-117
-4.37934e-117
-2.99096e-117
-8.89616e-117
-7.69229e-117
-4.88621e-116
-3.23666e-116
-3.36562e-116
-2.06366e-116
-2.53335e-116
-1.3458e-116
-1.40149e-115
-1.34743e-115
-9.87809e-116
-9.11598e-116
-6.86266e-116
-6.14055e-116
-2.38752e-115
-2.03583e-115
-2.88531e-115
-2.5233e-115
-3.52645e-115
3.03374e-115
-3.29681e-115
1.86886e-115
-1.34432e-114
-1.22801e-114
-5.27958e-114
1.3062e-113
-1.36798e-112
-1.28612e-112
-9.52598e-113
-6.72939e-113
-6.77739e-113
-4.11387e-113
-5.12164e-113
-2.55904e-113
-3.36076e-112
-3.16709e-112
-2.68125e-112
-2.42957e-112
-1.90353e-112
-1.56996e-112
-7.8116e-112
-6.13964e-112
-1.20329e-111
-1.08485e-111
-8.70642e-112
-5.71067e-112
-1.77278e-111
8.14748e-113
-6.69627e-111
-5.83395e-111
-5.02338e-111
-3.1682e-111
-1.28352e-110
-1.399e-110
-8.52291e-111
-8.11549e-111
-5.713e-111
-5.15059e-111
-4.07899e-111
-2.29796e-111
-4.80995e-111
-3.7742e-111
-1.04655e-110
-9.60792e-111
-7.71356e-111
-5.54823e-111
-4.89781e-110
-4.12126e-110
-5.84369e-110
-5.42656e-110
-4.0103e-110
-3.57866e-110
-3.93293e-110
-1.71246e-110
-6.81163e-110
-6.32319e-110
-5.46538e-110
-1.7839e-110
-1.14314e-109
-1.13316e-109
-7.69962e-110
-7.27991e-110
-5.1164e-110
-4.72457e-110
-4.30396e-110
-3.45956e-110
-3.00265e-110
-2.07393e-110
-3.05469e-110
7.75206e-111
-4.47743e-109
-3.96337e-109
-3.41683e-109
-1.2445e-109
-5.64002e-109
-4.3517e-109
-4.13883e-109
-2.4605e-109
-1.81608e-108
-1.59463e-108
-1.34744e-108
-1.18066e-108
-9.26673e-109
-8.18864e-109
-1.3731e-108
-1.19881e-108
-1.40624e-108
-1.31005e-108
-2.27325e-108
3.19543e-108
-7.54089e-108
-5.09255e-108
-1.15617e-107
-1.14595e-107
-7.83043e-108
-7.4045e-108
-8.54363e-108
-8.58117e-108
-6.04234e-108
-4.8601e-108
-7.88336e-108
-7.73693e-108
-5.33579e-108
-4.75916e-108
-1.58339e-107
-1.48755e-107
-1.19489e-107
-1.09707e-107
-8.22236e-108
-7.38551e-108
-1.50569e-107
-1.29364e-107
-1.68374e-107
-1.59443e-107
-1.14364e-107
-1.04778e-107
-1.10015e-107
-4.91898e-108
-1.40339e-107
-1.20998e-107
-1.25607e-107
-7.17101e-108
-8.68983e-108
-5.35642e-108
-6.74529e-108
-2.59185e-108
-1.19184e-107
-1.07281e-107
-8.02328e-108
-6.83008e-108
-7.89856e-108
-7.16499e-108
-8.88431e-108
-9.18815e-108
-5.83345e-108
-5.87846e-108
-9.11186e-108
-8.75724e-108
-8.34573e-108
-8.25736e-108
-5.54905e-108
-5.47683e-108
-4.11812e-108
-2.94732e-108
-4.44299e-108
-4.2087e-108
-3.05083e-108
-2.59809e-108
-4.66878e-108
-3.77315e-108
-4.12598e-108
-3.63553e-108
-2.75658e-108
-2.51446e-108
-2.06804e-108
-1.9898e-108
-1.52146e-108
-1.43433e-108
-1.55753e-108
4.07307e-109
-7.62869e-108
-6.95421e-108
-5.49461e-108
-4.29106e-108
-3.76327e-108
-2.93876e-108
-2.59263e-108
-2.01753e-108
-6.06156e-108
-6.06884e-108
-1.18039e-105
-1.48968e-105
-6.46059e-101
5.91301e-103
-6.98285e-98
-7.91554e-98
-6.15034e-98
-1.29204e-99
1.50998e-97
4.50387e-97
-1.3653e-93
5.11867e-94
-1.73941e-90
-9.38295e-91
-4.69298e-88
-5.75355e-88
-3.37258e-88
-1.2643e-86
-3.91893e-88
-2.9464e-28
1.03067e-22
3.43706e-20
-6.05871e-19
-1.41269e-18
5.36227e-20
2.678e-25
5.95557e-24
6.59922e-25
4.87508e-31
-4.88192e-06
-9.29433e-33
9.84989e-35
5.17294e-37
-9.66139e-39
8.72859e-42
4.84299e-43
-3.15135e-45
6.07859e-48
3.14323e-50
-1.06184e-52
-1.796e-54
-1.95213e-56
9.48067e-59
9.4393e-61
-8.6878e-64
-1.30124e-65
-1.58491e-67
-1.14402e-69
-3.06282e-72
-2.04521e-75
-4.06806e-79
-9.56752e-84
-3.74308e-86
0.0106181
7.39104e-06
0.00942463
0.00575575
0.00132806
-0.00483286
-0.0122069
-0.0175344
-0.023425
-0.0302635
-0.0352597
-0.0371756
-0.0373674
-0.0335936
-0.0264166
-0.0222503
-0.0159417
-0.0103335
-0.00629727
-0.00301852
-0.00221659
-0.000740988
0.000444543
0.000337767
0.000420735
0.000359692
0.000415943
0.000268211
0.000181567
0.000164578
0.000145639
8.09945e-05
5.05941e-05
2.85949e-05
1.90933e-05
1.24901e-05
6.08436e-06
3.47993e-06
1.77304e-06
1.05352e-06
5.74203e-07
2.81605e-07
1.44203e-07
1.14892e-07
5.10862e-08
3.0941e-08
1.55771e-08
7.25841e-09
3.81107e-09
1.49362e-09
8.55235e-10
4.99616e-10
1.52039e-10
6.46509e-11
1.33539e-11
7.03661e-12
2.21246e-12
-1.40042e-12
-1.31072e-12
1.39461e-13
-3.18425e-13
-8.82496e-14
-6.12709e-14
-4.3307e-14
-8.9743e-15
-1.41642e-14
-1.13339e-14
-4.05279e-15
-2.60229e-15
-1.45999e-15
-9.19894e-16
-3.87911e-16
-2.0766e-16
-1.1675e-16
-4.66786e-17
-1.73748e-17
-9.28e-18
-5.37987e-18
-4.04099e-18
2.98872e-06
-1.36756e-17
-7.68621e-30
-4.00428e-06
-3.36419e-05
7.01515e-05
5.06042e-06
-0.000470727
-0.000605768
0.000670696
0.00352339
-5.42429e-06
4.22685e-06
2.725e-08
0.00690982
-8.80885e-07
5.19914e-06
4.60195e-06
-1.01957e-37
-3.99274e-07
-5.39185e-07
-6.60001e-07
-7.10213e-07
-4.257e-07
2.5994e-06
-8.83666e-06
1.15647e-06
-1.66428e-06
1.46671e-06
5.19023e-30
1.20816e-30
0.00964728
5.79596e-05
-7.73433e-27
-7.8588e-28
5.05889e-05
1.04769e-05
3.87833e-05
-3.18417e-05
2.54241e-06
-4.75004e-05
-2.02134e-05
-1.20936e-05
-6.04186e-06
6.52e-05
5.37472e-05
9.79794e-05
0.000126545
4.60543e-05
0.00015294
-0.000131056
9.25709e-05
-0.00035748
-4.85235e-05
-0.000545957
-0.000223546
-0.0005942
-0.000393828
-0.000321073
-0.000449703
0.000342426
-0.000321666
0.00138867
-8.2133e-05
0.00287036
0.000412214
0.00440314
0.000975171
0.00600189
0.00147978
0.0080647
0.00142721
0.00905963
0.00163229
0.00996288
0.00109531
0.00999639
0.000689641
0.00956059
-0.000884814
0.00847828
-0.00205324
0.00666739
-0.00388173
0.00415392
-0.00583574
0.0015748
-0.00808131
-0.000994446
-0.0101126
-0.00466331
-0.0117005
-0.00774778
-0.0135423
-0.0097545
-0.0152091
-0.0122307
-0.0157536
-0.0141757
-0.0164107
-0.0166065
-0.0167404
-0.0195657
-0.0169555
-0.0214845
-0.0171115
-0.0245255
-0.0173985
-0.0265365
-0.0170502
-0.0281126
-0.0160008
-0.0288501
-0.0152061
-0.0299766
-0.0129092
-0.0309882
-0.0117831
-0.0308229
-0.0113922
-0.0300813
-0.00910777
-0.0279192
-0.00688686
-0.0266115
-0.00368101
-0.0242492
-0.00239749
-0.0206193
-0.00025119
-0.0185972
0.00384789
-0.0149907
0.00362755
-0.0115428
0.0064895
-0.0101388
0.00906335
-0.00831838
0.00844394
-0.00550867
0.00873263
-0.00449604
0.0104118
-0.00282752
0.00926222
-0.00134727
0.00965806
5.94205e-05
0.00953184
0.000486706
0.00958383
0.00107722
0.00867476
0.00188296
0.0081961
0.00141521
0.00800879
0.00188373
0.00642747
0.00206288
0.00603429
0.00161517
0.00561321
0.00148935
0.00450938
0.00155378
0.00388997
0.00117397
0.00356424
0.00120704
0.0027826
0.00113997
0.00246749
0.000939074
0.00216662
0.000877593
0.00171662
0.000670488
0.00155028
0.000467688
0.00118866
0.000410631
0.000886162
0.000362141
0.000751013
0.000321508
0.000623021
0.000246056
0.000533263
0.000202238
0.000405869
0.000177357
0.000326961
0.000126362
0.000274789
0.00011178
0.000202081
9.3814e-05
0.000166277
7.17116e-05
0.000136132
6.05424e-05
0.000101986
4.34757e-05
8.59943e-05
2.9268e-05
6.22223e-05
2.39243e-05
4.40781e-05
1.95191e-05
3.54116e-05
1.60551e-05
2.78995e-05
1.20054e-05
2.23593e-05
9.54773e-06
1.66799e-05
7.93893e-06
1.3244e-05
5.39679e-06
1.05614e-05
4.46422e-06
7.40056e-06
3.52522e-06
5.81456e-06
2.40527e-06
4.58141e-06
1.81969e-06
3.19155e-06
1.46752e-06
2.41171e-06
1.01735e-06
1.89033e-06
7.982e-07
1.33423e-06
6.23346e-07
1.03291e-06
4.89096e-07
7.86881e-07
3.51457e-07
6.0782e-07
2.68947e-07
4.3734e-07
2.13145e-07
3.36163e-07
1.41255e-07
2.58892e-07
1.11761e-07
1.75048e-07
8.47953e-08
1.32723e-07
5.62623e-08
1.01107e-07
4.14778e-08
6.83969e-08
3.21482e-08
5.03873e-08
2.09609e-08
3.82933e-08
1.64475e-08
2.57804e-08
1.24085e-08
1.93611e-08
8.63625e-09
1.45226e-08
6.58894e-09
1.00212e-08
4.28815e-09
7.72788e-09
2.6595e-09
5.08852e-09
2.00533e-09
3.29951e-09
1.50767e-09
2.46053e-09
1.14322e-09
1.80968e-09
7.51117e-10
1.36592e-09
5.46015e-10
9.04281e-10
4.1354e-10
6.52753e-10
2.58637e-10
4.86466e-10
1.99531e-10
3.16288e-10
1.47387e-10
2.33042e-10
8.27908e-11
1.72473e-10
6.1087e-11
1.02361e-10
4.70517e-11
7.5821e-11
2.97725e-11
5.60997e-11