/*--------------------------------*- C++ -*----------------------------------*\
  =========                 |
  \\      /  F ield         | OpenFOAM: The Open Source CFD Toolbox
   \\    /   O peration     | Website:  https://openfoam.org
    \\  /    A nd           | Version:  7
     \\/     M anipulation  |
\*---------------------------------------------------------------------------*/
FoamFile
{
    version     2.0;
    format      ascii;
    class       volScalarField;
    location    "0.76";
    object      T;
}
// * * * * * * * * * * * * * * * * * * * * * * * * * * * * * * * * * * * * * //

dimensions      [0 0 0 1 0 0 0];

internalField   nonuniform List<scalar> 
46572
(
0
0
0
0
0
0
0
0
0
0
0
0
0
0
0
0
0
0
0
0
0
0
0
0
0
0
0
0
0
0
0
0
0
0
0
0
0
0
0
0
0
0
0
0
0
0
0
0
0
0
0
0
0
0
0
0
0
0
0
0
0
0
0
0
0
0
0
0
0
0
0
0
0
0
0
0
0
0
0
0
0
0
0
0
0
0
0
0
0
0
0
0
0
0
0
0
0
0
0
0
0
0
0
0
0
0
0
0
0
0
0
0
0
0
0
0
0
0
0
0
0
0
0
0
0
0
0
0
0
0
0
0
0
0
0
0
0
0
0
0
0
0
0
0
0
0
0
0
0
0
0
0
0
0
0
0
0
0
0
0
0
0
0
0
0
0
0
0
0
0
0
0
0
0
0
0
0
0
0
0
0
0
0
0
0
0
0
0
0
0
0
0
0
0
0
0
0
0
0
0
0
0
0
0
0
0
0
0
0
0
0
0
0
0
0
0
0
0
0
0
0
0
0
0
0
0
0
0
0
0
0
0
0
0
0
0
0
0
0
0
0
0
0
0
0
0
0
0
0
0
0
0
0
6.25125e-154
0
-4.07342e-142
-1.675e-142
3.63314e-137
4.55501e-137
1.06331e-135
-4.85115e-135
-3.50455e-134
-5.04379e-134
3.37909e-128
1.46672e-128
1.1485e-123
4.02385e-124
8.252e-121
9.71589e-121
2.75907e-120
3.38645e-120
1.92954e-120
2.53466e-120
-1.08581e-119
3.37231e-119
6.96222e-118
1.34885e-117
2.46221e-117
5.5174e-117
2.2787e-115
2.05809e-115
-3.76501e-114
1.34913e-113
-5.33645e-113
3.09396e-113
-6.48567e-112
9.69078e-112
-2.93599e-110
-2.19437e-110
-3.34593e-110
-3.19103e-110
-2.14932e-110
-2.5729e-110
-3.95078e-110
1.23989e-110
-2.62604e-108
-2.92388e-108
-1.70035e-108
-1.92611e-108
-2.36944e-108
3.49633e-108
1.17801e-108
7.3799e-108
4.01376e-108
6.63866e-108
2.69059e-108
2.1062e-107
1.22673e-110
2.30356e-108
3.03093e-106
4.89372e-106
3.70314e-106
2.08963e-105
-2.28092e-106
1.80046e-105
4.81628e-106
3.14217e-106
9.99166e-104
-5.35999e-104
1.22141e-103
-1.77397e-103
8.53744e-104
1.82459e-104
1.02611e-103
-1.84379e-103
6.76683e-103
-7.92433e-103
-5.84226e-103
7.58018e-102
-6.25382e-102
2.29142e-101
-9.24092e-101
1.09805e-100
-2.12118e-100
-9.97168e-101
-1.43682e-100
-1.64383e-100
-8.72606e-101
-2.40295e-101
-7.40001e-100
3.2795e-100
6.67339e-100
-3.90817e-99
4.2486e-99
-6.61088e-99
7.59798e-99
-1.05563e-98
2.8865e-98
1.03393e-98
2.20156e-98
9.21158e-100
2.32043e-98
-2.07682e-98
3.73051e-98
-1.16284e-98
3.90096e-98
-3.1363e-98
5.82322e-98
-8.50831e-98
1.98859e-97
4.50456e-98
1.45589e-97
-2.93523e-98
2.38493e-97
-4.04804e-97
4.36077e-97
-4.53462e-97
5.5186e-97
-4.2682e-97
8.45287e-97
-1.46281e-96
1.78428e-96
-2.62382e-96
4.28534e-96
1.14123e-96
7.54668e-96
-1.26444e-95
9.83644e-96
-5.09012e-96
1.01007e-95
-7.67123e-96
6.67672e-96
9.25592e-96
-2.89232e-96
3.70622e-95
-4.53942e-95
7.23554e-95
-1.90847e-94
1.12921e-95
-4.82106e-94
8.00642e-95
-4.29435e-94
6.2208e-95
-3.87948e-94
1.20421e-94
-7.4194e-94
1.72826e-94
-1.0669e-93
-6.7569e-94
-8.45403e-94
-8.4064e-94
5.6364e-94
-4.1554e-93
2.22186e-93
-5.49092e-93
4.30688e-93
-1.01287e-92
7.5289e-93
-1.49533e-92
1.23967e-92
-2.7222e-92
2.99127e-92
-3.68198e-92
1.35414e-91
-1.86558e-91
1.49486e-91
-1.74586e-91
1.59556e-91
-1.7943e-91
1.59723e-91
-1.72682e-91
3.89544e-91
-3.4497e-91
5.9748e-91
-2.89607e-92
4.68297e-91
-1.63233e-91
6.30914e-91
-8.44215e-91
1.05542e-90
-1.08383e-90
1.34016e-90
-9.23924e-91
1.63129e-90
-1.82255e-90
2.51561e-90
-3.92716e-90
3.13623e-90
-2.89926e-90
5.24292e-90
-5.03519e-90
5.02466e-90
-2.93885e-90
5.37901e-90
-2.20189e-91
4.73831e-90
-9.96076e-91
4.70195e-90
-2.81123e-90
1.47686e-89
4.14435e-91
1.14839e-89
-5.7272e-90
1.90137e-89
-3.16921e-89
3.28016e-89
-3.17751e-89
3.8238e-89
-1.68852e-89
3.85761e-89
-2.08514e-89
4.24743e-89
-3.84158e-89
4.75065e-89
-3.13345e-89
5.38493e-89
-4.59807e-89
5.39061e-89
-2.04583e-89
4.94894e-89
-5.38061e-90
4.21438e-89
-7.81911e-90
3.70897e-89
-3.11887e-90
3.4519e-89
-3.26321e-90
4.78522e-89
-5.57007e-89
7.29135e-89
-1.46449e-89
7.62029e-89
-5.01106e-89
7.04188e-89
-4.33153e-89
1.25446e-88
-7.77815e-89
1.70475e-88
1.64716e-89
1.34622e-88
-1.97866e-89
1.429e-88
-9.55885e-89
1.5307e-88
-5.08208e-89
2.0488e-88
-1.61838e-88
3.20909e-88
-2.83651e-88
4.06952e-88
-4.86137e-88
3.98738e-88
-3.72536e-88
4.36717e-88
-4.84449e-88
4.43551e-88
-4.39673e-88
6.04243e-88
-4.52606e-88
5.49161e-88
-2.8719e-88
9.29635e-88
-5.30199e-88
1.25915e-87
8.04745e-89
9.95212e-88
-1.73039e-88
1.03837e-87
-7.27895e-88
1.27178e-87
-6.94714e-88
1.28862e-87
-3.17444e-88
1.19366e-87
-4.99859e-88
1.21505e-87
-4.85722e-88
1.54567e-87
1.97322e-88
1.23314e-87
7.02416e-89
1.11243e-87
-4.59572e-92
1.31883e-87
1.51744e-88
1.048e-87
1.26462e-88
8.74845e-88
-6.10708e-89
1.18869e-87
3.96266e-88
8.57733e-88
1.68132e-88
7.53877e-88
-1.64509e-88
7.29147e-88
-1.49376e-88
6.56568e-88
-4.11815e-89
5.39453e-88
-6.27668e-89
4.96026e-88
-6.19057e-89
5.41142e-88
1.96912e-88
4.46979e-88
2.69129e-90
3.97622e-88
5.67166e-90
3.1757e-88
-2.43014e-91
1.63431e-88
5.60063e-89
1.0354e-87
-5.87114e-88
2.09856e-85
1.49577e-85
1.54283e-84
3.62076e-85
1.50424e-83
1.1207e-83
-2.90385e-81
5.46756e-82
9.46691e-81
-7.56534e-80
-1.01396e-77
-5.52278e-79
-7.01774e-77
-2.93598e-77
-8.33074e-76
4.82538e-76
-7.33118e-75
-3.58621e-75
1.50505e-74
2.72491e-73
-1.48399e-72
-8.70221e-73
-5.43594e-71
-1.82731e-71
-1.6614e-69
-1.03821e-69
-5.39536e-69
5.29188e-69
-1.15809e-67
2.67278e-68
3.93731e-66
-2.3465e-06
-8.58791e-07
-3.5909e-08
-8.89267e-10
7.10376e-11
2.33306e-12
-1.35001e-15
-4.50628e-16
-1.61996e-18
-9.15412e-21
1.12429e-22
5.21551e-25
-8.734e-26
1.06506e-27
7.86021e-31
-5.03711e-32
2.40946e-35
1.29531e-36
-7.07199e-39
-1.28612e-41
2.9787e-43
-1.95685e-45
8.4548e-48
-4.093e-50
3.23196e-52
-3.67648e-54
3.52069e-56
-2.53645e-58
1.23546e-60
-3.62163e-63
-2.53506e-06
-9.50845e-10
9.18297e-09
9.68544e-09
-3.53058e-08
-8.0833e-08
8.39369e-08
4.61932e-07
-1.15211e-07
-4.63064e-06
-1.54173e-05
-2.49478e-05
2.32233e-06
0.000160389
0.000611905
0.00162911
0.00363243
0.0070516
0.0124029
0.0202165
0.0307107
0.0446478
0.0615583
0.0802515
0.102238
0.124207
0.145642
0.164348
0.181097
0.192065
0.196064
0.192137
0.185922
0.170975
0.150215
0.12472
0.0976294
0.0688388
0.0389966
0.012008
-0.0137373
-0.0346168
-0.0524991
-0.0645996
-0.0694952
-0.0756395
-0.0770228
-0.0739775
-0.0711326
-0.0658493
-0.0583986
-0.0508166
-0.0440628
-0.038264
-0.031999
-0.0257121
-0.0210795
-0.0166862
-0.0130135
-0.0101077
-0.00745829
-0.0057838
-0.00434589
-0.00318184
-0.00232983
-0.00170696
-0.00125082
-0.000900491
-0.000615894
-0.000440597
-0.000304536
-0.000206613
-0.000140373
-9.63325e-05
-6.41538e-05
-4.25062e-05
-2.75367e-05
-1.85097e-05
-1.20892e-05
-8.10873e-06
-4.08569e-06
-2.6795e-06
1.4979e-12
-4.86215e-11
-3.58357e-12
-4.56868e-11
-1.17212e-10
1.35142e-10
-1.38035e-10
1.18747e-10
8.52874e-10
-1.4668e-09
-2.1788e-09
-2.91678e-09
5.76427e-11
-2.89531e-11
3.42537e-11
-2.18584e-13
1.28051e-11
2.47279e-11
-3.4086e-11
4.20904e-11
-1.33661e-11
1.38166e-11
-9.84484e-11
-1.39445e-11
-1.10776e-10
7.00352e-11
1.04594e-10
-1.46633e-10
-7.51529e-11
1.25501e-11
-9.17141e-11
1.22963e-10
8.09477e-11
1.28579e-10
1.2844e-10
-1.20352e-11
1.14159e-10
-1.60248e-10
-9.17907e-11
5.09723e-11
-6.61587e-11
3.15973e-11
1.91238e-11
-5.67302e-11
2.25247e-11
-5.73361e-10
-7.99157e-11
-7.20909e-10
-3.98559e-10
-8.69873e-11
-1.06754e-09
3.54111e-11
1.85398e-11
1.04105e-09
9.13299e-10
1.591e-09
1.14869e-09
-8.47077e-10
2.55739e-10
-3.0329e-09
-2.79263e-09
-7.04615e-09
-3.15459e-09
-7.64353e-09
-5.87255e-09
-2.4355e-09
-5.16882e-09
4.54037e-09
6.14383e-10
7.4247e-09
6.81604e-09
2.67705e-09
5.3708e-09
-1.59488e-08
-9.95499e-09
-4.24269e-08
-4.24413e-08
-6.2228e-08
-8.62477e-08
-3.75353e-08
-1.20867e-07
6.30005e-08
-1.25684e-07
2.57876e-07
-7.16764e-08
5.15112e-07
6.35244e-08
7.3716e-07
2.03164e-07
7.18678e-07
2.15576e-07
1.52354e-07
-1.67416e-07
-1.25716e-06
-1.32459e-06
-3.67505e-06
-3.72816e-06
-6.85295e-06
-7.75057e-06
-9.8711e-06
-1.36716e-05
-1.04486e-05
-2.09932e-05
-3.75092e-06
-2.80913e-05
1.76725e-05
-3.34444e-05
6.50505e-05
-2.95359e-05
0.000151682
-9.76151e-06
0.000299871
3.44168e-05
0.000532787
0.00012495
0.000898707
0.000265648
0.00141436
0.000512698
0.00213741
0.000850022
0.0031366
0.00134738
0.00442031
0.00202345
0.0060716
0.00288443
0.00823011
0.00403762
0.0108193
0.00554268
0.013937
0.0072806
0.0177474
0.00946705
0.022084
0.0120229
0.0272016
0.0148953
0.0327514
0.0183174
0.0394411
0.0219799
0.046423
0.0264049
0.0540425
0.0307952
0.062896
0.0360141
0.0714311
0.0412816
0.0804497
0.0464035
0.0908175
0.0523163
0.100691
0.0585683
0.110193
0.0638424
0.120977
0.0698869
0.129897
0.0748749
0.138509
0.0788604
0.147867
0.0832776
0.15371
0.0863889
0.161518
0.0892829
0.168436
0.0933338
0.172584
0.0948396
0.176127
0.094372
0.176578
0.093147
0.178017
0.0911862
0.176653
0.0887321
0.17279
0.0831303
0.169697
0.0787067
0.162584
0.0711387
0.154475
0.0622574
0.146689
0.0539984
0.134925
0.0437639
0.125298
0.033724
0.114052
0.024974
0.100984
0.0141679
0.0881301
0.00231839
0.0741033
-0.00897396
0.0615329
-0.0209602
0.0474814
-0.0314903
0.0344464
-0.0430549
0.0201734
-0.0525116
0.00835072
-0.062921
-0.00341145
-0.0719684
-0.015283
-0.0802473
-0.0262676
-0.0877276
-0.0347501
-0.0944607
-0.0447479
-0.0997988
-0.0527326
-0.104476
-0.059085
-0.108406
-0.0637155
-0.110828
-0.0685655
-0.113022
-0.0726192
-0.113781
-0.0744602
-0.113581
-0.0784771
-0.113025
-0.0775062
-0.111061
-0.076714
-0.108172
-0.0774798
-0.105879
-0.0767841
-0.102926
-0.0737937
-0.0986562
-0.0730523
-0.0949442
-0.0691366
-0.0899305
-0.0655126
-0.0847055
-0.0634525
-0.0800923
-0.0584493
-0.0744238
-0.0554868
-0.0699656
-0.0529075
-0.065962
-0.0494737
-0.0612912
-0.046058
-0.0566442
-0.0420999
-0.0518994
-0.039003
-0.0478613
-0.0360655
-0.0438335
-0.0323074
-0.0396278
-0.0301102
-0.0361233
-0.0267453
-0.0323995
-0.0239138
-0.0289841
-0.0219373
-0.0263174
-0.0196349
-0.0235555
-0.01726
-0.0208072
-0.0155815
-0.0186053
-0.0138334
-0.0164946
-0.0122695
-0.0145755
-0.0107236
-0.0127996
-0.00947142
-0.0112854
-0.00834317
-0.00989984
-0.00721857
-0.00859507
-0.00641472
-0.0075523
-0.00548349
-0.00650151
-0.00471431
-0.00559589
-0.00413232
-0.00487409
-0.0035873
-0.00422393
-0.00303875
-0.00360302
-0.00264034
-0.00311008
-0.00225651
-0.00265854
-0.0019274
-0.00226682
-0.00162994
-0.00192153
-0.00138656
-0.00163808
-0.00117891
-0.00138808
-0.000983357
-0.00115914
-0.00081937
-0.000965795
-0.00069525
-0.000819236
-0.000586681
-0.000691195
-0.000498014
-0.00058564
-0.000419571
-0.000492634
-0.000344762
-0.000407504
-0.000292202
-0.00034214
-0.000239412
-0.000281303
-0.000195992
-0.000231412
-0.000163971
-0.000192345
-0.000132274
-0.000156091
-0.000109761
-0.000129466
-9.16337e-05
-0.000107907
-7.53074e-05
-8.88117e-05
-6.19004e-05
-7.28984e-05
-5.03676e-05
-5.95482e-05
-4.13834e-05
-4.89157e-05
-3.39527e-05
-3.9963e-05
-2.72369e-05
-3.22468e-05
-2.25086e-05
-2.6486e-05
-1.81449e-05
-2.14322e-05
-1.47675e-05
-1.73884e-05
-1.21821e-05
-1.41936e-05
-9.75716e-06
-1.13146e-05
-7.53509e-06
-8.8822e-06
-6.05651e-06
-7.34719e-06
-5.68888e-06
-3.98305e-06
-6.26824e-06
-4.97701e-22
1.09291e-20
4.46567e-18
6.66921e-16
3.18463e-14
-1.88465e-13
4.15092e-12
5.67365e-10
2.78624e-08
1.07934e-08
3.59114e-07
2.94364e-07
8.85442e-08
0
0
-2.33385e-41
-1.83172e-34
-2.52784e-29
-1.33539e-27
1.92044e-25
4.73308e-25
-3.77313e-26
1.77326e-24
1.11836e-24
-3.25953e-23
-5.05138e-23
-1.86773e-23
-5.4857e-23
7.34093e-23
5.01352e-24
-3.39209e-23
-1.94989e-23
-1.47121e-23
-2.34299e-23
-4.70859e-23
-2.71443e-23
-4.24947e-23
-6.60923e-23
-9.89053e-23
-1.10109e-22
-1.58836e-22
-1.68913e-22
-1.16776e-22
-1.42971e-22
-2.19625e-22
-3.29215e-22
-3.5311e-22
-3.26332e-22
-1.97234e-22
-5.1126e-23
2.14965e-22
3.3913e-22
4.05311e-22
4.55227e-22
3.38667e-22
2.66949e-22
1.84024e-22
6.9207e-23
-1.3357e-23
-3.19472e-23
-7.19857e-23
-7.92999e-23
-8.27239e-23
-6.88968e-23
-5.14764e-23
-2.72059e-23
-1.99792e-23
-9.83483e-24
-5.50526e-24
-2.26141e-24
-4.4754e-25
6.51568e-25
9.69556e-25
8.52255e-25
8.75324e-25
8.55806e-25
6.76044e-25
4.92572e-25
2.42027e-25
1.88206e-25
1.44547e-25
2.81272e-26
4.84459e-26
2.51663e-26
2.01676e-26
3.28952e-27
-5.99376e-27
-1.51062e-26
-1.9246e-26
-1.2581e-26
-1.06362e-26
-9.07745e-27
-5.68919e-27
-2.74459e-27
-5.92024e-28
6.8476e-28
8.98556e-28
9.02786e-28
1.06822e-27
6.66301e-28
6.98134e-28
5.63006e-28
3.51448e-28
2.35014e-28
1.32611e-28
1.12357e-28
7.90446e-29
6.48703e-29
4.69749e-29
3.77157e-29
5.8316e-28
1.67404e-25
-4.34143e-23
5.04398e-66
7.01882e-09
4.48962e-09
3.30164e-07
1.77479e-07
-6.13958e-08
-1.19909e-09
-6.1136e-11
-1.57614e-11
-2.08562e-13
3.12282e-15
3.70511e-17
5.20444e-20
1.18422e-21
-3.74038e-23
7.2654e-25
-9.26616e-28
-9.70451e-29
5.47085e-31
1.84112e-33
-1.20175e-35
-4.531e-38
9.24313e-40
-5.01023e-42
1.66247e-44
-1.20231e-47
-2.75183e-49
3.65055e-51
-3.67948e-53
3.17858e-55
-2.24339e-57
1.02577e-59
-2.90198e-62
-1.08524e-11
3.3024e-65
2.98039e-09
1.17625e-08
-7.05467e-09
-7.05355e-08
-4.06756e-08
2.72628e-07
4.58886e-07
-1.66344e-06
-9.21608e-06
-2.17974e-05
-1.99574e-05
5.55111e-05
0.000336199
0.00103311
0.00249937
0.00512103
0.00942801
0.0161142
0.0251104
0.0373375
0.052341
0.0701895
0.0909205
0.112191
0.133523
0.15645
0.171875
0.184901
0.194692
0.194766
0.190871
0.178399
0.159567
0.139184
0.111219
0.083543
0.053997
0.025626
-0.00176727
-0.0230555
-0.0412291
-0.05794
-0.0668184
-0.0735994
-0.077123
-0.0742689
-0.0742287
-0.0672857
-0.0604381
-0.0557292
-0.0475457
-0.0411686
-0.034325
-0.0279561
-0.0234788
-0.0182366
-0.014357
-0.0113181
-0.00864082
-0.0065849
-0.00505603
-0.00365092
-0.00278787
-0.00199863
-0.00146212
-0.00104261
-0.000729218
-0.000519875
-0.000359168
-0.000245766
-0.000173497
-0.000115274
-7.68093e-05
-5.15808e-05
-3.35849e-05
-2.25998e-05
-1.46268e-05
-9.78416e-06
-7.23144e-06
3.81692e-11
4.21546e-11
-9.0083e-12
7.34505e-11
-3.08194e-11
1.68318e-10
-2.86308e-11
-4.0276e-10
4.32444e-10
8.01705e-10
-2.27996e-09
1.71706e-11
7.65903e-13
9.75988e-12
7.93297e-12
-4.23059e-12
6.03033e-12
4.65771e-11
-4.98476e-11
3.73727e-11
-8.96038e-16
-1.54916e-11
-2.3008e-19
-6.14605e-17
-5.84249e-15
-8.84605e-14
1.26833e-12
-6.08412e-11
-4.86444e-09
-9.74836e-08
6.08658e-18
0
-1.47951e-45
-1.85225e-38
-2.00501e-31
9.30833e-29
-2.98528e-26
-1.67603e-25
-1.03276e-24
-9.6617e-25
-1.82224e-24
1.67352e-23
4.33563e-23
6.68815e-24
8.9439e-24
8.00573e-24
-1.43652e-22
6.15653e-24
-1.41578e-23
-3.67423e-23
-1.07075e-23
-2.31373e-23
-4.45903e-23
-2.62311e-23
-6.56646e-23
-8.49536e-23
-1.10375e-22
-1.55159e-22
-8.59332e-23
-1.30278e-22
-1.93809e-22
-1.95812e-22
-3.04155e-22
-4.44363e-22
-4.23443e-22
-3.28104e-22
8.6032e-23
1.23109e-22
4.35348e-22
3.26543e-22
5.11294e-22
4.67586e-22
3.66394e-22
2.43846e-22
1.08565e-22
2.5948e-23
-2.66564e-23
-5.8097e-23
-7.06015e-23
-8.19408e-23
-7.29318e-23
-5.52284e-23
-4.63587e-23
-2.42901e-23
-1.66599e-23
-6.88011e-24
-3.94837e-24
-1.00848e-24
2.74183e-25
6.6953e-25
1.16328e-24
8.19414e-25
8.50242e-25
7.30446e-25
5.2377e-25
4.49115e-25
2.29243e-25
1.62771e-25
1.39144e-25
3.55044e-26
6.66842e-26
1.61915e-26
9.34212e-27
-3.76998e-27
-1.31382e-26
-1.58009e-26
-2.12879e-26
-1.12163e-26
-1.04965e-26
-7.16562e-27
-3.97249e-27
-1.28096e-27
7.23588e-30
4.68673e-28
1.30472e-27
1.16163e-27
1.07251e-27
7.92848e-28
6.36583e-28
4.97849e-28
3.00356e-28
2.01092e-28
1.25952e-28
8.90783e-29
7.26602e-29
5.54239e-29
3.99018e-29
-6.40671e-29
-8.62971e-27
8.76101e-24
1.82915e-65
0
-2.64131e-13
7.23089e-15
6.70078e-17
1.30349e-19
2.04239e-21
-7.10908e-23
1.52763e-24
-4.55046e-27
-1.7631e-28
9.35542e-31
3.23879e-33
-2.10869e-35
-8.30886e-38
1.5511e-39
-8.95182e-42
2.96681e-44
-2.55405e-47
-4.98305e-49
6.41251e-51
-6.72588e-53
5.89556e-55
-3.98956e-57
1.86101e-59
-5.64849e-62
8.35934e-65
8.57842e-09
2.57397e-09
-4.92635e-08
-7.38151e-08
1.6256e-07
5.93322e-07
-2.1494e-07
-6.03112e-06
-2.08222e-05
-4.2217e-05
-4.62029e-05
3.25393e-05
0.000308577
0.00099005
0.00237291
0.00472185
0.00853158
0.0137792
0.021224
0.0305008
0.0412271
0.0536389
0.0667736
0.0791535
0.0923307
0.0989804
0.104696
0.106712
0.0999844
0.0917762
0.0784897
0.0591604
0.0406372
0.0145565
-0.00919314
-0.0340188
-0.0572581
-0.0768709
-0.0940719
-0.106255
-0.114558
-0.118208
-0.117445
-0.115286
-0.108249
-0.10169
-0.0914843
-0.080723
-0.0717476
-0.060729
-0.0521758
-0.0434307
-0.0352729
-0.0290838
-0.0227701
-0.0177674
-0.0139303
-0.0106415
-0.00803877
-0.00614174
-0.00447656
-0.00336041
-0.00240852
-0.00176848
-0.00126481
-0.000887953
-0.000628154
-0.000435383
-0.000298321
-0.000208577
-0.00013878
-9.31754e-05
-6.25925e-05
-4.09073e-05
-2.73314e-05
-1.78378e-05
-1.18686e-05
-8.35977e-06
-5.82277e-11
3.0134e-12
-1.02429e-10
-6.53874e-11
5.30129e-11
-5.322e-10
9.06336e-11
2.74983e-10
-9.63591e-12
1.03975e-11
-2.61457e-12
4.37362e-12
6.88178e-12
1.44151e-11
-2.58429e-11
3.04477e-11
-9.42196e-12
3.79464e-12
9.77579e-12
7.16269e-14
-3.23773e-14
1.53469e-12
8.22316e-10
5.067e-08
0
4.59012e-39
1.01734e-32
3.27997e-28
2.65733e-26
-1.15054e-24
-1.91801e-24
-4.84289e-24
-4.37218e-24
-9.85024e-24
3.48678e-23
2.33385e-23
6.41907e-23
1.58612e-22
-1.63115e-22
1.1106e-22
2.67101e-23
4.9609e-23
5.60484e-23
2.8589e-23
9.60069e-23
1.45352e-22
1.41002e-22
1.21079e-22
-4.01986e-23
-2.28892e-22
-1.79738e-23
2.48283e-23
1.35452e-22
3.28396e-22
3.19625e-22
-9.49547e-23
-5.34524e-22
-8.8003e-22
-8.52861e-22
-1.10588e-21
-8.0424e-22
-7.57926e-22
-3.63148e-22
-8.75288e-23
1.06684e-22
2.29417e-22
2.34395e-22
2.86173e-22
2.15469e-22
1.28814e-22
1.22896e-22
4.84657e-23
2.54317e-23
7.26381e-24
-1.23712e-23
-1.75749e-24
-9.64512e-24
-4.74518e-24
-4.98546e-24
-3.31439e-24
-2.27783e-24
-1.7188e-24
-6.134e-25
-6.50657e-25
-4.40881e-25
-1.49027e-25
-1.44434e-25
1.4385e-25
-3.08633e-26
-5.99275e-26
2.68506e-26
-1.29324e-25
-5.10604e-26
-1.23143e-26
2.46522e-26
3.58748e-26
4.24984e-26
3.25112e-26
1.42324e-26
1.90002e-26
3.92264e-27
-5.99368e-28
-2.77919e-27
-3.2782e-27
-3.83345e-27
-3.72518e-27
-1.91297e-27
-1.64177e-27
-9.80496e-28
-6.09941e-28
-1.87372e-28
-1.46732e-29
1.54232e-28
1.04394e-28
-4.22527e-29
3.57215e-29
-2.27401e-30
2.55586e-29
2.05688e-29
-2.3457e-28
3.78299e-27
-2.54808e-24
-2.76205e-18
-2.27061e-20
3.10719e-22
-9.11534e-25
-1.45801e-25
2.07478e-27
7.28162e-31
-8.31768e-32
2.8849e-35
2.37645e-36
-1.20906e-38
-1.90117e-41
4.86214e-43
-3.3049e-45
1.55133e-47
-7.39948e-50
6.38684e-52
-7.04572e-54
6.47637e-56
-4.72219e-58
2.35003e-60
-7.83155e-63
4.33152e-09
1.07036e-08
-1.77035e-08
-7.37737e-08
-6.86046e-10
3.98182e-07
5.16797e-07
-2.1716e-06
-1.21888e-05
-3.14062e-05
-4.94767e-05
-2.49435e-05
0.000139605
0.000591497
0.00160272
0.00341283
0.00644315
0.0110326
0.0171809
0.0257699
0.035804
0.0471019
0.0605733
0.073392
0.0857363
0.0959645
0.103438
0.106763
0.105169
0.0961198
0.0869854
0.0710428
0.0503217
0.0274878
0.00250301
-0.020945
-0.0450184
-0.0673723
-0.0860081
-0.100413
-0.110242
-0.117135
-0.117206
-0.116781
-0.112146
-0.104897
-0.0968522
-0.0867683
-0.0761105
-0.0658136
-0.0563655
-0.0480998
-0.0396142
-0.0320469
-0.0259641
-0.0203423
-0.0158204
-0.0123135
-0.00916655
-0.00704375
-0.00527035
-0.00387423
-0.00283199
-0.00206322
-0.00151161
-0.00107791
-0.000744816
-0.000529372
-0.000365612
-0.000249949
-0.000169058
-0.000115599
-7.70202e-05
-5.11769e-05
-3.33284e-05
-2.23167e-05
-1.46319e-05
-9.77869e-06
7.97851e-12
1.97366e-11
7.02755e-11
-1.12236e-11
1.68621e-10
5.92023e-11
-2.92687e-10
1.08103e-09
-2.07194e-10
1.85015e-11
-1.54034e-12
3.90772e-12
-7.13684e-12
1.14082e-11
1.98433e-11
-1.73962e-11
1.5274e-11
-2.59669e-19
-1.02945e-16
-1.15418e-14
-2.82537e-13
2.96785e-12
-8.6458e-11
-7.98707e-09
-2.49779e-07
5.40664e-43
3.1918e-36
5.13819e-30
2.55037e-28
1.28641e-25
2.76488e-24
5.03725e-24
1.14059e-23
1.37383e-23
-2.18901e-23
-3.83133e-23
-4.95655e-23
-1.00613e-22
-5.90883e-23
1.22704e-22
1.90613e-23
5.29107e-23
1.29192e-22
1.76384e-23
2.65796e-23
1.50604e-22
9.77467e-23
1.64952e-22
1.10333e-22
-3.59085e-23
-2.1051e-22
-2.33366e-22
5.13383e-23
3.96369e-22
3.85695e-22
1.63747e-22
-1.23694e-22
-6.75571e-22
-9.13508e-22
-1.13099e-21
-8.7958e-22
-6.79301e-22
-5.96804e-22
-2.19187e-22
-1.18804e-22
1.16737e-22
2.4249e-22
2.26983e-22
1.88514e-22
1.27075e-22
1.2372e-22
5.75221e-23
1.94914e-23
4.49649e-24
-5.73687e-24
3.29724e-25
-9.23643e-24
-5.90999e-24
-5.15691e-24
-3.76625e-24
-2.84537e-24
-1.95037e-24
-1.19244e-24
-7.14877e-25
-4.53239e-25
-1.19529e-25
-1.06348e-25
9.37037e-26
-3.03396e-26
-5.89639e-26
-1.53185e-27
-1.67882e-25
-1.06219e-25
-1.06162e-26
1.36806e-26
2.55406e-26
3.37842e-26
2.68082e-26
1.64806e-26
2.09392e-26
7.81868e-27
1.95796e-28
-1.90482e-27
-3.25239e-27
-3.75828e-27
-2.79724e-27
-2.03677e-27
-2.19029e-27
-1.30176e-27
-1.13845e-27
-4.77371e-28
-1.18589e-28
2.60995e-29
2.84899e-29
-1.41304e-28
1.07272e-29
-3.50332e-29
1.45502e-29
1.17273e-29
-3.86238e-30
1.98707e-27
1.24141e-25
-3.50917e-10
-2.17951e-14
4.03756e-12
1.68905e-10
-3.14038e-11
-9.28229e-12
-1.65996e-09
2.66336e-11
-1.97927e-11
9.56019e-21
1.27646e-15
0
1.73441e-48
0
0
0
0
0
0
0
0
0
0
0
0
0
0
0
0
0
0
0
0
0
0
0
0
0
0
0
0
0
0
0
0
0
0
0
0
0
0
0
0
0
0
0
0
0
0
0
0
0
0
0
0
0
0
0
0
0
0
0
0
0
0
0
0
0
0
0
0
0
0
0
0
0
0
0
0
0
0
0
0
0
0
0
0
0
0
0
0
0
0
0
0
0
0
0
0
0
0
0
0
0
0
0
0
0
0
0
0
0
0
0
0
0
0
0
0
0
0
0
0
0
0
0
0
0
0
0
0
0
0
0
0
0
0
0
0
0
0
0
0
0
0
0
0
0
0
0
0
0
0
0
0
0
0
0
0
0
0
0
0
0
0
0
0
0
0
0
0
0
0
0
0
0
0
0
0
0
0
0
0
0
0
0
0
0
0
0
0
0
0
0
0
0
0
0
-3.05091e-12
0
0
0
0
0
0
0
0
0
0
0
0
0
0
0
0
0
0
0
0
0
0
0
0
0
0
0
0
0
0
0
0
0
0
0
0
0
0
0
0
0
0
0
0
0
0
0
0
0
0
0
0
0
0
-6.99553e-141
7.34726e-150
1.20341e-134
-2.62881e-139
5.33005e-131
6.70445e-131
4.7283e-130
-2.09224e-129
1.51984e-126
-9.64393e-128
1.37842e-121
2.47547e-122
1.04073e-118
1.26197e-118
1.44435e-118
1.63746e-118
4.17981e-119
1.20398e-118
2.91008e-116
4.2318e-116
1.44629e-115
2.51373e-115
1.1726e-115
1.47578e-114
8.59259e-113
9.01193e-113
-9.94656e-112
-8.57557e-112
-2.51909e-110
6.11671e-110
-3.78563e-109
-3.56012e-109
-2.14199e-108
-1.76623e-108
-1.58552e-108
-7.04504e-109
-3.34292e-108
8.71317e-108
-1.2843e-107
-7.13805e-108
-1.17883e-106
-1.17027e-106
-9.26985e-107
-7.20921e-107
5.81027e-106
1.21751e-105
7.72618e-106
1.24217e-105
5.86765e-106
6.85324e-106
1.63168e-105
3.43749e-105
8.43558e-105
9.9656e-105
1.58711e-104
2.47649e-104
4.09525e-104
2.04384e-103
-4.65175e-104
4.30836e-103
-2.73375e-103
1.45534e-102
6.45764e-102
3.11157e-102
1.69137e-101
-4.34026e-101
1.03214e-101
3.74878e-102
2.68257e-101
-4.87762e-101
7.8591e-101
-4.41926e-101
5.95433e-101
5.61636e-100
-8.52287e-100
2.47294e-99
-6.64077e-99
3.16354e-99
-8.18819e-99
5.52197e-99
-7.10508e-99
-1.77903e-99
-8.96894e-99
1.5363e-98
-3.66376e-98
1.83696e-98
1.14427e-97
-4.03166e-97
5.54436e-97
-7.18707e-98
9.5293e-97
3.45691e-97
1.25685e-96
3.98979e-97
1.082e-96
-2.87295e-97
1.83996e-96
-7.49923e-97
1.99945e-96
-2.24123e-96
2.67567e-96
-3.75251e-96
5.0369e-96
-1.79693e-96
7.05917e-96
-2.95283e-97
7.38527e-96
-5.01457e-96
2.06404e-95
-1.00368e-95
2.53923e-95
-1.29106e-95
3.28356e-95
-4.99931e-95
7.90124e-95
-1.58694e-94
1.38466e-94
-9.96604e-95
1.69203e-94
-2.20928e-94
7.55195e-94
-1.89971e-94
6.44835e-94
-1.60589e-94
7.71374e-94
-3.2079e-94
3.3544e-95
2.23032e-93
-1.19832e-93
2.70752e-93
-3.66455e-93
5.48945e-93
-7.88426e-93
5.98055e-93
-2.16648e-92
2.0516e-92
-2.06016e-92
1.92202e-92
-2.21389e-92
1.53675e-92
-4.35115e-92
-1.31154e-92
-3.29587e-92
-1.74253e-92
-1.46939e-92
-6.48268e-92
8.95426e-92
-2.31917e-91
1.78242e-91
-3.37148e-91
3.46601e-91
-6.40483e-91
6.16874e-91
-1.31799e-90
1.09716e-90
-1.23556e-90
2.11488e-90
-4.41687e-90
8.15885e-90
-5.01721e-90
8.49405e-90
-9.30203e-90
9.15251e-90
-9.75439e-90
9.43465e-90
-8.82512e-90
1.90092e-89
-5.51562e-90
1.90324e-89
-1.07082e-89
1.86328e-89
-1.14632e-89
3.81361e-89
-3.02495e-89
5.64819e-89
-3.36261e-89
6.44371e-89
-6.24522e-89
9.66367e-89
-1.17033e-88
1.65771e-88
-5.24492e-89
1.66465e-88
-4.21629e-89
2.73063e-88
9.56089e-89
2.19661e-88
-4.01607e-89
1.75983e-88
-4.68584e-89
1.80063e-88
-1.55762e-88
2.19255e-88
-1.56974e-88
5.04397e-88
-2.77052e-88
5.73141e-88
-4.88696e-88
1.40986e-87
-5.98118e-88
1.87132e-87
-5.53378e-88
1.70045e-87
-5.39592e-88
1.82892e-87
-1.1729e-87
2.34327e-87
-1.38077e-88
2.3821e-87
-9.41055e-88
2.87987e-87
6.62081e-88
2.28588e-87
9.80374e-89
1.79503e-87
-1.08654e-88
1.61075e-87
-3.87158e-88
1.34614e-87
-5.68138e-88
1.35955e-87
-1.13485e-87
2.82493e-87
-5.03304e-88
2.7728e-87
-1.91774e-87
3.58664e-87
-1.64671e-87
3.369e-87
-1.89461e-87
5.63299e-87
-6.26206e-88
5.04872e-87
-1.64938e-87
4.72984e-87
-1.64403e-87
6.56248e-87
-2.30902e-87
6.15184e-87
-1.71501e-87
9.96553e-87
-1.25772e-86
1.60167e-86
-8.81841e-87
2.23345e-86
-1.87535e-87
2.01297e-86
-3.76786e-87
2.37362e-86
-3.2566e-87
2.30785e-86
-8.774e-87
2.79677e-86
-2.18613e-87
2.34387e-86
-7.40477e-87
3.84727e-86
-3.29126e-87
3.63127e-86
-1.39915e-86
3.37173e-86
-1.09127e-86
4.58306e-86
-1.31347e-86
5.16196e-86
-8.09482e-87
4.4436e-86
-9.18056e-87
4.48247e-86
-2.3791e-86
4.40596e-86
-5.3687e-87
4.11147e-86
-1.63032e-86
3.41701e-86
-1.26202e-86
3.18468e-86
-1.19958e-86
3.44607e-86
5.93584e-88
2.73225e-86
-2.58297e-87
2.55164e-86
-5.92151e-89
2.63063e-86
4.59854e-87
2.09317e-86
1.48171e-87
2.4179e-86
4.67133e-88
2.31173e-86
-2.8558e-88
1.88364e-86
-2.56404e-89
1.58963e-86
-3.3703e-87
1.42489e-86
2.66845e-88
1.12786e-86
-1.4349e-87
1.17441e-86
-2.1175e-87
1.04549e-86
-9.8106e-88
8.14825e-87
6.73252e-88
6.26223e-87
1.24344e-87
-6.35029e-86
-1.00481e-85
4.9908e-84
-4.51325e-84
5.98924e-83
5.00212e-83
2.32831e-82
-1.59964e-83
-3.96059e-81
1.05964e-80
2.96544e-79
2.97701e-79
-1.55207e-76
8.96009e-78
-2.13913e-75
5.28787e-76
-1.40625e-74
1.41669e-74
-2.60583e-73
9.16348e-74
-3.65009e-72
-1.1653e-72
6.1031e-72
1.55868e-71
-9.92615e-70
4.65353e-70
-2.97183e-68
-8.55889e-69
-6.58284e-68
-7.7426e-68
-1.13575e-66
1.48205e-65
1.09024e-67
-2.96844e-14
-1.13207e-09
-5.73134e-08
2.89598e-07
4.39603e-07
-9.66151e-08
-3.08763e-11
1.76386e-10
-6.07354e-11
6.39351e-17
-2.26841e-11
1.44592e-19
2.20671e-21
-7.52846e-23
1.56164e-24
-4.79369e-27
-1.79916e-28
8.63792e-31
3.29865e-33
-1.87363e-35
-9.7286e-38
1.56578e-39
-8.57627e-42
2.74394e-44
-1.21518e-47
-5.89544e-49
7.18108e-51
-7.68422e-53
6.68585e-55
-4.66541e-57
2.10156e-59
-6.47276e-62
9.81042e-65
4.20823e-65
3.37123e-09
1.99399e-11
5.10989e-09
-2.11446e-08
-5.99775e-08
9.70354e-09
2.88852e-07
1.6905e-07
-2.18566e-06
-9.25832e-06
-2.04136e-05
-2.42334e-05
1.19366e-05
0.000147781
0.00047857
0.00115047
0.00223275
0.0039022
0.0061902
0.00891642
0.0125041
0.015886
0.0184807
0.0215251
0.0222309
0.0218077
0.0190801
0.0143745
0.00750436
-0.00145035
-0.0128358
-0.0217933
-0.0311372
-0.0410217
-0.0490369
-0.0539068
-0.0573845
-0.0591273
-0.0585876
-0.0561131
-0.0502363
-0.045115
-0.0391348
-0.0299728
-0.0252043
-0.0191333
-0.0136909
-0.0103293
-0.00634687
-0.00373545
-0.00160534
-0.00012289
-2.59693e-05
0.000708199
0.0010252
0.00107537
0.00116833
0.00109722
0.000900206
0.000979676
0.000710029
0.000606642
0.000486388
0.000378744
0.000289352
0.000194128
0.000137388
0.000111879
7.61069e-05
5.21001e-05
3.60179e-05
2.64175e-05
1.70493e-05
1.15897e-05
8.35945e-06
6.21791e-06
3.97917e-06
2.28029e-06
1.06627e-06
-3.20756e-11
-5.08595e-06
7.34239e-14
-6.86478e-13
-1.36979e-11
-7.20807e-11
-5.63953e-12
-1.37556e-10
-2.79274e-10
1.87844e-10
-1.889e-10
-2.44537e-11
6.03857e-12
-5.61023e-12
-1.68921e-09
1.43989e-11
2.96336e-12
-8.46799e-12
7.77444e-21
-2.82813e-12
-4.67332e-12
-7.3313e-12
1.80286e-11
-2.08856e-11
6.11383e-12
-2.26829e-12
7.62604e-12
-5.40205e-15
7.93219e-12
-8.99984e-16
1.03995e-16
-2.58527e-10
9.31227e-10
-2.08518e-13
-8.70635e-14
2.18564e-10
-3.57552e-11
8.96506e-11
-4.53124e-11
-7.60578e-11
6.18371e-12
8.77716e-12
-4.61753e-11
-7.08443e-12
-8.79495e-11
-3.64818e-11
-1.86e-10
-1.11608e-10
-1.5211e-11
-1.04204e-10
1.04519e-10
1.24502e-10
2.18486e-10
2.17586e-10
2.40809e-10
3.0601e-10
8.42151e-11
1.81639e-10
-3.1375e-10
1.18231e-10
-9.0479e-11
4.07597e-10
8.68109e-11
3.57708e-10
-1.29557e-10
4.29586e-10
-8.56593e-10
1.09607e-09
-2.01744e-09
1.26023e-10
-1.33685e-09
4.98696e-10
-1.47276e-09
9.59539e-10
1.09281e-09
3.48605e-09
5.31283e-09
7.98157e-09
8.4424e-09
1.46934e-08
3.94771e-09
1.80298e-08
-1.06723e-08
1.7472e-08
-3.58685e-08
7.19349e-09
-6.55399e-08
-8.3576e-09
-8.04899e-08
-2.23933e-08
-6.19312e-08
-1.287e-08
9.1499e-09
4.49963e-08
1.32096e-07
1.66389e-07
2.38021e-07
3.2135e-07
2.11663e-07
4.66192e-07
-1.47661e-07
4.45811e-07
-1.10216e-06
5.3138e-09
-2.93596e-06
-1.119e-06
-5.80703e-06
-3.32128e-06
-9.67904e-06
-6.87332e-06
-1.38556e-05
-1.19808e-05
-1.68436e-05
-1.86737e-05
-1.63117e-05
-2.58108e-05
-8.63907e-06
-3.36795e-05
1.2618e-05
-3.92484e-05
5.56563e-05
-3.95815e-05
0.000126596
-2.59461e-05
0.000242907
6.10486e-07
0.00042094
4.28356e-05
0.000660552
0.000135636
0.000978482
0.000240314
0.00140801
0.000402755
0.00193493
0.000597808
0.00259512
0.000841228
0.00344282
0.00113397
0.00437003
0.00156577
0.00543314
0.00190061
0.00661263
0.00238965
0.00802503
0.00283725
0.00932675
0.00342237
0.0108555
0.00384209
0.0123705
0.0042456
0.0138905
0.0048914
0.0153751
0.00501774
0.0167554
0.0056747
0.0176815
0.00551384
0.0187269
0.00505144
0.0198267
0.00489189
0.0199366
0.00475711
0.020034
0.0031495
0.0194235
0.00296261
0.0179383
0.00104675
0.0165943
-0.00132803
0.0139453
-0.00282318
0.011913
-0.00640785
0.0104266
-0.00854223
0.00751014
-0.00999331
0.0039544
-0.012942
-0.000347266
-0.0157801
-0.00414249
-0.019461
-0.00822808
-0.0219633
-0.0133369
-0.0244515
-0.0170962
-0.0283989
-0.0225674
-0.0298905
-0.0274897
-0.0330189
-0.0314642
-0.0355691
-0.035456
-0.0364154
-0.0389227
-0.0387907
-0.0412635
-0.0393424
-0.0439035
-0.0392753
-0.0467495
-0.0396032
-0.0482235
-0.0393755
-0.0494486
-0.0385066
-0.049892
-0.0371958
-0.0506292
-0.0362345
-0.0499768
-0.0340661
-0.0496743
-0.0329101
-0.0477285
-0.0299469
-0.0461377
-0.0264403
-0.0447516
-0.0243522
-0.042008
-0.0219426
-0.03949
-0.0175488
-0.0365984
-0.0154976
-0.0338258
-0.0121637
-0.0300691
-0.00915274
-0.0274256
-0.00558798
-0.0244163
-0.00324618
-0.0211108
-0.00112818
-0.019149
0.00228222