/*--------------------------------*- C++ -*----------------------------------*\
  =========                 |
  \\      /  F ield         | OpenFOAM: The Open Source CFD Toolbox
   \\    /   O peration     | Website:  https://openfoam.org
    \\  /    A nd           | Version:  7
     \\/     M anipulation  |
\*---------------------------------------------------------------------------*/
FoamFile
{
    version     2.0;
    format      ascii;
    class       volScalarField;
    location    "0.15";
    object      T;
}
// * * * * * * * * * * * * * * * * * * * * * * * * * * * * * * * * * * * * * //

dimensions      [0 0 0 1 0 0 0];

internalField   nonuniform List<scalar> 
10000
(
0.5
0.0669197
-0.0353185
-0.027726
-0.00791331
0.00112946
0.00221508
0.0009611
1.1115e-05
-0.000256274
-0.000184184
-6.33981e-05
4.46244e-06
2.27751e-05
1.85383e-05
9.99717e-06
3.89672e-06
8.82097e-07
-1.85372e-07
-3.735e-07
-2.83166e-07
-1.61654e-07
-7.72738e-08
-3.15535e-08
-1.06315e-08
-2.47857e-09
8.62683e-11
5.81345e-10
4.77167e-10
2.88613e-10
1.49842e-10
6.99609e-11
2.98434e-11
1.16203e-11
4.05075e-12
1.19045e-12
2.33465e-13
-2.72205e-14
-6.57285e-14
-4.94651e-14
-2.89194e-14
-1.49041e-14
-7.06773e-15
-3.14169e-15
-1.31946e-15
-5.24286e-16
-1.96161e-16
-6.81715e-17
-2.13095e-17
-5.48789e-18
-7.68418e-19
3.24016e-19
3.9532e-19
2.649e-19
1.46916e-19
7.36926e-20
3.45864e-20
1.5437e-20
6.60782e-21
2.72409e-21
1.083e-21
4.14712e-22
1.52316e-22
5.31871e-23
1.73514e-23
5.09069e-24
1.20814e-24
1.27447e-25
-9.66094e-26
-9.79204e-26
-6.22399e-26
-3.3589e-26
-1.65957e-26
-7.73918e-27
-3.45861e-27
-1.49384e-27
-6.26699e-28
-2.56104e-28
-1.02089e-28
-3.97049e-29
-1.50515e-29
-5.54822e-30
-1.97998e-30
-6.78857e-31
-2.20556e-31
-6.60649e-32
-1.70791e-32
-2.98899e-33
3.47704e-34
7.45312e-34
5.31091e-34
2.99956e-34
1.52066e-34
7.22653e-35
3.28508e-35
1.44434e-35
6.18247e-36
2.58724e-36
1.06027e-36
4.27059e-37
0.93309
0.499991
0.144797
-0.0139072
-0.0411414
-0.0229865
-0.00499869
0.00230327
0.00270357
0.00117481
5.84153e-05
-0.00030859
-0.000269473
-0.000136553
-4.06811e-05
2.19853e-06
1.27522e-05
1.06369e-05
6.16601e-06
2.83381e-06
1.02656e-06
2.43958e-07
-1.86294e-08
-6.97873e-08
-5.61434e-08
-3.34159e-08
-1.6873e-08
-7.51206e-09
-2.95828e-09
-9.99345e-10
-2.57214e-10
-2.03272e-11
3.30605e-11
3.1712e-11
2.0251e-11
1.09121e-11
5.28852e-12
2.36194e-12
9.80101e-13
3.76897e-13
1.32227e-13
4.0544e-14
9.47336e-15
4.91485e-16
-1.29492e-15
-1.15062e-15
-7.13073e-16
-3.80178e-16
-1.85202e-16
-8.45237e-17
-3.65681e-17
-1.50732e-17
-5.92171e-18
-2.20785e-18
-7.72658e-19
-2.47714e-19
-6.85402e-20
-1.32546e-20
9.19457e-22
2.98018e-21
2.24472e-21
1.3051e-21
6.72839e-22
3.222e-22
1.46353e-22
6.37484e-23
2.67851e-23
1.08877e-23
4.28467e-24
1.63028e-24
5.97496e-25
2.09355e-25
6.91367e-26
2.08947e-26
5.36968e-27
8.74956e-28
-1.75192e-28
-2.80483e-28
-1.94123e-28
-1.08633e-28
-5.48048e-29
-2.59305e-29
-1.17242e-29
-5.11771e-30
-2.16969e-30
-8.96641e-31
-3.61942e-31
-1.42846e-31
-5.51168e-32
-2.07699e-32
-7.62655e-33
-2.71782e-33
-9.33563e-34
-3.05407e-34
-9.29871e-35
-2.50098e-35
-5.03264e-36
-2.8049e-38
7.61996e-37
7.68608e-37
1.03532
0.855151
0.500006
0.182541
0.00840625
-0.041935
-0.0325717
-0.0121222
0.000139081
0.00346222
0.00255492
0.000980998
4.14836e-05
-0.00025461
-0.000232369
-0.000132569
-5.42077e-05
-1.33316e-05
1.90427e-06
4.93498e-06
3.87412e-06
2.23945e-06
1.0701e-06
4.29954e-07
1.37826e-07
2.63115e-08
-6.60663e-09
-1.11697e-08
-8.18713e-09
-4.70287e-09
-2.3482e-09
-1.05329e-09
-4.2724e-10
-1.54462e-10
-4.71944e-11
-9.94418e-12
6.65351e-13
2.43705e-12
1.90772e-12
1.13345e-12
5.88156e-13
2.78999e-13
1.23273e-13
5.10777e-14
1.98184e-14
7.1234e-15
2.30621e-15
6.23195e-16
1.01573e-16
-2.69539e-17
-3.98934e-17
-2.78379e-17
-1.57302e-17
-7.96699e-18
-3.75378e-18
-1.67376e-18
-7.12216e-19
-2.90228e-19
-1.13238e-19
-4.21323e-20
-1.48051e-20
-4.81438e-21
-1.38212e-21
-3.02849e-22
-1.17467e-23
4.12117e-23
3.50343e-23
2.1235e-23
1.11975e-23
5.44707e-24
2.50679e-24
1.10552e-24
4.70516e-25
1.94008e-25
7.76316e-26
3.01449e-26
1.13383e-26
4.11363e-27
1.42842e-27
4.67819e-28
1.40237e-28
3.56925e-29
5.68812e-30
-1.23681e-30
-1.89249e-30
-1.29873e-30
-7.23791e-31
-3.643e-31
-1.72168e-31
-7.78291e-32
-3.39971e-32
-1.44366e-32
-5.98148e-33
-2.42341e-33
-9.6119e-34
-3.73301e-34
-1.41876e-34
-5.26839e-35
-1.90494e-35
-6.06852e-36
1.0277
1.01391
0.817626
0.500075
0.206389
0.0267
-0.039223
-0.0392022
-0.0194266
-0.00378102
0.00275489
0.00339159
0.00202756
0.000741618
6.28518e-05
-0.000152251
-0.000151863
-9.46444e-05
-4.51339e-05
-1.6443e-05
-3.59303e-06
7.23512e-07
1.46526e-06
1.11678e-06
6.46807e-07
3.17225e-07
1.35197e-07
4.92783e-08
1.40605e-08
1.86386e-09
-1.27994e-09
-1.46746e-09
-9.91277e-10
-5.49705e-10
-2.70312e-10
-1.21092e-10
-4.97598e-11
-1.86041e-11
-6.13394e-12
-1.6191e-12
-2.01713e-13
1.33409e-13
1.48195e-13
9.84087e-14
5.43962e-14
2.70723e-14
1.25022e-14
5.4284e-15
2.22626e-15
8.60812e-16
3.10878e-16
1.02482e-16
2.91035e-17
5.8065e-18
-3.45698e-19
-1.29189e-18
-9.91346e-19
-5.82569e-19
-3.02275e-19
-1.45151e-19
-6.58715e-20
-2.85486e-20
-1.18773e-20
-4.75138e-21
-1.82521e-21
-6.70024e-22
-2.32625e-22
-7.47802e-23
-2.11948e-23
-4.54406e-24
-1.18794e-25
6.58908e-25
5.47245e-25
3.28962e-25
1.72764e-25
8.38905e-26
3.86009e-26
1.70452e-26
7.27444e-27
3.01242e-27
1.21285e-27
4.74947e-28
1.807e-28
6.66022e-29
2.36513e-29
8.01216e-30
2.54099e-30
7.24393e-31
1.65533e-31
1.4861e-32
-1.47362e-32
-1.40176e-32
-8.71872e-33
-4.64845e-33
-2.28002e-33
-1.05925e-33
-4.73034e-34
-2.04774e-34
-8.62705e-35
-3.55936e-35
1.00788
1.04123
0.99181
0.793489
0.499637
0.223193
0.0423148
-0.034442
-0.043356
-0.0263195
-0.00901237
0.0003502
0.00304081
0.00256935
0.00139582
0.000519532
8.19779e-05
-6.50035e-05
-7.93728e-05
-5.44561e-05
-2.89514e-05
-1.26023e-05
-4.33486e-06
-9.14437e-07
1.77938e-07
3.58893e-07
2.73788e-07
1.60378e-07
8.0593e-08
3.58679e-08
1.41367e-08
4.76885e-09
1.21023e-09
7.44235e-11
-1.77388e-10
-1.65122e-10
-1.05044e-10
-5.66604e-11
-2.75123e-11
-1.23001e-11
-5.09743e-12
-1.9489e-12
-6.73673e-13
-1.99043e-13
-4.10358e-14
2.51656e-15
9.59003e-15
7.47889e-15
4.44356e-15
2.31844e-15
1.11289e-15
5.01442e-16
2.14013e-16
8.67599e-17
3.3328e-17
1.2024e-17
3.99146e-18
1.16053e-18
2.52384e-19
4.53378e-21
-3.98511e-20
-3.31367e-20
-2.00451e-20
-1.05777e-20
-5.1457e-21
-2.36332e-21
-1.03712e-21
-4.37585e-22
-1.78002e-22
-6.98199e-23
-2.63412e-23
-9.50122e-24
-3.23747e-24
-1.01697e-24
-2.7792e-25
-5.4195e-26
2.55293e-27
1.09804e-26
8.35586e-27
4.86981e-27
2.51665e-27
1.21025e-27
5.53511e-28
2.43538e-28
1.03761e-28
4.2969e-29
1.73291e-29
6.8098e-30
2.60554e-30
9.68476e-31
3.48204e-31
1.20173e-31
3.92619e-32
1.18099e-32
3.05754e-33
5.29829e-34
-6.92267e-35
-1.39044e-34
-9.84043e-35
-6.35673e-35
0.998858
1.02312
1.04202
0.972922
0.775959
0.499638
0.237251
0.0574428
-0.027026
-0.044237
-0.0314865
-0.0144
-0.00322787
0.00143967
0.00225704
0.00163751
0.000859188
0.000336509
7.84956e-05
-1.54241e-05
-3.35008e-05
-2.6242e-05
-1.54037e-05
-7.53848e-06
-3.12915e-06
-1.05463e-06
-2.30245e-07
2.96009e-08
7.5557e-08
5.93504e-08
3.54968e-08
1.82959e-08
8.44179e-09
3.51796e-09
1.30785e-09
4.13182e-10
9.26561e-11
-2.48334e-12
-2.01568e-11
-1.65522e-11
-1.00854e-11
-5.32886e-12
-2.5635e-12
-1.14486e-12
-4.7778e-13
-1.85845e-13
-6.64664e-14
-2.10896e-14
-5.34565e-15
-5.9066e-16
4.79817e-16
5.02894e-16
3.28663e-16
1.80797e-16
9.01887e-17
4.20173e-17
1.85344e-17
7.78934e-18
3.12325e-18
1.19128e-18
4.28493e-19
1.42594e-19
4.19989e-20
9.5761e-21
5.62185e-22
-1.18429e-21
-1.05596e-21
-6.53329e-22
-3.49132e-22
-1.71472e-22
-7.94532e-23
-3.51909e-23
-1.50033e-23
-6.17873e-24
-2.46055e-24
-9.46448e-25
-3.5034e-25
-1.23866e-25
-4.12301e-26
-1.25391e-26
-3.23104e-27
-5.18688e-28
1.16654e-28
1.78281e-28
1.23181e-28
6.90981e-29
3.49707e-29
1.65977e-29
7.5244e-30
3.29087e-30
1.39663e-30
5.77098e-31
2.3259e-31
9.14825e-32
3.50936e-32
1.31049e-32
4.74653e-33
1.65691e-33
5.51328e-34
1.39912e-34
0.997805
1.00514
1.03238
1.03864
0.957502
0.763277
0.500465
0.249934
0.0730521
-0.0162632
-0.0408101
-0.0334756
-0.0184616
-0.0068903
-0.000867156
0.00120528
0.00136087
0.000922798
0.000482831
0.000200631
5.96704e-05
4.14014e-06
-1.07985e-05
-1.06849e-05
-7.02296e-06
-3.79251e-06
-1.77204e-06
-7.19125e-07
-2.43126e-07
-5.71674e-08
2.11144e-09
1.39214e-08
1.163e-08
7.17396e-09
3.80161e-09
1.81214e-09
7.8902e-10
3.13363e-10
1.1125e-10
3.31799e-11
6.50561e-12
-9.01534e-13
-2.00861e-12
-1.52041e-12
-8.97977e-13
-4.67341e-13
-2.23365e-13
-9.97559e-14
-4.18983e-14
-1.65324e-14
-6.07159e-15
-2.02629e-15
-5.77677e-16
-1.12015e-16
1.13367e-17
2.94101e-17
2.22051e-17
1.30419e-17
6.78453e-18
3.26684e-18
1.4849e-18
6.43277e-19
2.66719e-19
1.05884e-19
4.01099e-20
1.4374e-20
4.78512e-21
1.42016e-21
3.33465e-22
2.79103e-23
-3.41827e-23
-3.241e-23
-2.04174e-23
-1.10181e-23
-5.45146e-24
-2.54333e-24
-1.13461e-24
-4.8768e-25
-2.02775e-25
-8.17001e-26
-3.18903e-26
-1.20321e-26
-4.36638e-27
-1.50982e-27
-4.88573e-28
-1.4232e-28
-3.35005e-29
-3.4228e-30
2.75116e-30
2.75387e-30
1.74659e-30
9.43024e-31
4.66869e-31
2.18421e-31
9.80334e-32
4.25704e-32
1.79752e-32
7.40217e-33
2.97494e-33
1.12655e-33
0.999088
0.997909
1.01159
1.03814
1.03515
0.945685
0.752358
0.499212
0.259884
0.0886292
-0.00246671
-0.0330327
-0.0316471
-0.0201378
-0.00956817
-0.00309857
-0.000160687
0.000719766
0.000716069
0.00047321
0.000250892
0.000110273
3.84135e-05
8.07488e-06
-1.86685e-06
-3.5715e-06
-2.76738e-06
-1.65654e-06
-8.51776e-07
-3.87825e-07
-1.56204e-07
-5.37061e-08
-1.37766e-08
-7.22968e-10
2.23495e-09
2.08306e-09
1.34197e-09
7.33907e-10
3.60969e-10
1.63119e-10
6.80871e-11
2.60621e-11
8.91277e-12
2.52563e-12
4.27522e-13
-1.20262e-13
-1.82195e-13
-1.30475e-13
-7.53359e-14
-3.87814e-14
-1.8457e-14
-8.2509e-15
-3.4867e-15
-1.39294e-15
-5.22738e-16
-1.81253e-16
-5.58286e-17
-1.36153e-17
-1.25843e-18
1.38669e-18
1.36429e-18
8.76177e-19
4.78913e-19
2.38836e-19
1.11786e-19
4.97795e-20
2.12348e-20
8.70129e-21
3.42363e-21
1.28863e-21
4.60019e-22
1.53032e-22
4.56281e-23
1.09258e-23
1.09711e-24
-9.64009e-25
-9.6493e-25
-6.16867e-25
-3.35486e-25
-1.66962e-25
-7.83216e-26
-3.51433e-26
-1.52048e-26
-6.37121e-27
-2.59119e-27
-1.02324e-27
-3.9183e-28
-1.45008e-28
-5.15315e-29
-1.73777e-29
-5.4331e-30
-1.49278e-30
-3.02979e-31
2.06746e-33
5.10527e-32
4.03473e-32
2.38351e-32
1.24235e-32
6.00946e-33
2.8864e-33
1.00005
0.997658
0.999065
1.01747
1.04431
1.03344
0.933322
0.736653
0.491315
0.264861
0.102606
0.0127581
-0.0221593
-0.0264921
-0.0192105
-0.0106793
-0.00464468
-0.00138572
-2.10076e-05
0.000356984
0.000340299
0.000224523
0.000121626
5.62086e-05
2.18348e-05
6.44242e-06
7.05923e-07
-8.52061e-07
-9.24332e-07
-6.3381e-07
-3.58728e-07
-1.79044e-07
-8.0431e-08
-3.24472e-08
-1.14242e-08
-3.18732e-09
-4.08109e-10
2.99444e-10
3.41652e-10
2.34079e-10
1.32887e-10
6.74825e-11
3.15371e-11
1.37077e-11
5.54124e-12
2.06047e-12
6.83365e-13
1.85117e-13
2.67318e-14
-1.23571e-14
-1.53888e-14
-1.06027e-14
-6.02255e-15
-3.07651e-15
-1.46056e-15
-6.54045e-16
-2.78032e-16
-1.12302e-16
-4.29167e-17
-1.53377e-17
-4.99309e-18
-1.38538e-18
-2.54522e-19
3.58378e-20
7.43924e-20
5.47863e-20
3.18913e-20
1.65501e-20
7.98559e-21
3.6519e-21
1.59839e-21
6.7285e-22
2.72881e-22
1.06517e-22
3.98575e-23
1.41744e-23
4.70919e-24
1.40802e-24
3.4178e-25
3.83534e-26
-2.66814e-26
-2.80114e-26
-1.81242e-26
-9.91882e-27
-4.95968e-27
-2.33696e-27
-1.05361e-27
-4.5833e-28
-1.93286e-28
-7.92186e-29
-3.1581e-29
-1.22382e-29
-4.59944e-30
-1.66881e-30
-5.79753e-31
-1.89922e-31
-5.68596e-32
-1.43701e-32
-2.21374e-33
1.35389e-33
1.00031
0.999373
0.995694
1.00079
1.02644
1.05318
1.02898
0.911925
0.709517
0.47357
0.263153
0.11307
0.0271677
-0.0101728
-0.0192934
-0.0162165
-0.0102306
-0.00525963
-0.00218099
-0.00063486
-1.43554e-05
0.00015433
0.000148639
9.95654e-05
5.53832e-05
2.67652e-05
1.126e-05
3.95738e-06
9.77387e-07
-2.19673e-08
-2.39664e-07
-2.09217e-07
-1.33539e-07
-7.29594e-08
-3.57671e-08
-1.59777e-08
-6.49124e-09
-2.34656e-09
-7.05271e-10
-1.32784e-10
2.79624e-11
5.08159e-11
3.81566e-11
2.26924e-11
1.19285e-11
5.7577e-12
2.5923e-12
1.09402e-12
4.31373e-13
1.56756e-13
5.07083e-14
1.32173e-14
1.61736e-15
-1.10682e-15
-1.22838e-15
-8.23804e-16
-4.62532e-16
-2.35061e-16
-1.11475e-16
-5.00354e-17
-2.13934e-17
-8.72728e-18
-3.38767e-18
-1.24096e-18
-4.21265e-19
-1.27111e-19
-3.01606e-20
-2.39455e-21
3.33457e-21
3.15627e-21
2.00471e-21
1.09166e-21
5.44674e-22
2.55932e-22
1.14803e-22
4.9514e-23
2.06049e-23
8.281e-24
3.20954e-24
1.19454e-24
4.23262e-25
1.40395e-25
4.20442e-26
1.03056e-26
1.24545e-27
-7.27141e-28
-7.95912e-28
-5.20102e-28
-2.86089e-28
-1.43605e-28
-6.79157e-29
-3.07419e-29
-1.34342e-29
-5.69608e-30
-2.34973e-30
-9.44176e-31
-3.69498e-31
-1.40616e-31
-5.18626e-32
-1.64928e-32
1.00021
1.00064
0.996776
0.993479
1.00756
1.04112
1.05956
1.01184
0.873765
0.667817
0.445299
0.254083
0.118539
0.0387786
0.00099452
-0.011544
-0.0120749
-0.00863833
-0.00502847
-0.00247155
-0.00100536
-0.000298796
-1.94425e-05
5.88023e-05
6.01519e-05
4.15136e-05
2.38121e-05
1.19875e-05
5.36484e-06
2.10326e-06
6.78033e-07
1.36503e-07
-2.86521e-08
-5.56988e-08
-4.33561e-08
-2.64542e-08
-1.41312e-08
-6.85717e-09
-3.06161e-09
-1.2565e-09
-4.6641e-10
-1.49368e-10
-3.51652e-11
-4.24493e-13
6.63799e-12
5.79079e-12
3.66204e-12
2.00271e-12
9.99076e-13
4.64712e-13
2.03394e-13
8.38968e-14
3.2439e-14
1.15756e-14
3.67107e-15
9.27427e-16
9.66717e-17
-9.05436e-17
-9.36115e-17
-6.16344e-17
-3.43341e-17
-1.73946e-17
-8.24982e-18
-3.71341e-18
-1.59676e-18
-6.57331e-19
-2.58668e-19
-9.67325e-20
-3.39384e-20
-1.08672e-20
-2.96362e-21
-5.27143e-22
8.62662e-23
1.62833e-22
1.18393e-22
6.86198e-23
3.55971e-23
1.72202e-23
7.91715e-24
3.49395e-24
1.48796e-24
6.13014e-25
2.44396e-25
9.41206e-26
3.48586e-26
1.23089e-26
4.07559e-27
1.2215e-27
3.01529e-28
3.83927e-29
-1.956e-29
-2.22003e-29
-1.4626e-29
-8.07876e-30
-4.06815e-30
-1.92992e-30
-8.76528e-31
-3.84547e-31
-1.63639e-31
-6.63631e-32
1.00006
1.00109
0.998633
0.992538
0.996593
1.02296
1.05571
1.05181
0.973158
0.816102
0.6125
0.407888
0.238075
0.118448
0.0464278
0.00998284
-0.00447889
-0.00770641
-0.00646623
-0.00422215
-0.00234098
-0.00112342
-0.000456948
-0.000142493
-1.77026e-05
1.93531e-05
2.25695e-05
1.632e-05
9.70188e-06
5.07808e-06
2.3913e-06
1.01229e-06
3.75634e-07
1.12306e-07
1.77704e-08
-8.68008e-09
-1.15844e-08
-8.4247e-09
-4.99356e-09
-2.63021e-09
-1.26999e-09
-5.68629e-10
-2.36123e-10
-8.98924e-11
-3.03651e-11
-8.27104e-12
-1.09816e-12
6.89134e-13
8.0757e-13
5.57519e-13
3.19986e-13
1.65436e-13
7.94517e-14
3.59326e-14
1.53848e-14
6.23285e-15
2.37311e-15
8.34924e-16
2.6083e-16
6.43791e-17
5.86115e-18
-6.92265e-18
-6.85986e-18
-4.46398e-18
-2.47483e-18
-1.25206e-18
-5.94432e-19
-2.68435e-19
-1.16074e-19
-4.81868e-20
-1.91937e-20
-7.30548e-21
-2.63266e-21
-8.81374e-22
-2.62675e-22
-6.14903e-23
-4.59946e-24
6.93749e-24
6.48088e-24
4.10078e-24
2.232e-24
1.11576e-24
5.26441e-25
2.37668e-25
1.03433e-25
4.35666e-26
1.77906e-26
7.04219e-27
2.69653e-27
9.94224e-28
3.49929e-28
1.15652e-28
3.46708e-29
8.60283e-30
1.13789e-30
-5.20283e-31
-6.09272e-31
-4.04118e-31
-2.23403e-31
-1.20227e-31
0.999971
1.00107
0.99983
0.99399
0.992808
1.00991
1.04128
1.05697
1.0194
0.91011
0.741419
0.547159
0.363928
0.216467
0.113197
0.049874
0.0161663
0.00114378
-0.00379712
-0.00421973
-0.00315036
-0.00194448
-0.00104686
-0.000497249
-0.000204639
-6.76893e-05
-1.25093e-05
5.0412e-06
7.79083e-06
6.04656e-06
3.75298e-06
2.04287e-06
1.00583e-06
4.51615e-07
1.83415e-07
6.52096e-08
1.82973e-08
2.19405e-09
-1.98493e-09
-2.23209e-09
-1.5568e-09
-9.06007e-10
-4.73362e-10
-2.28277e-10
-1.02724e-10
-4.31902e-11
-1.68338e-11
-5.94634e-12
-1.79377e-12
-3.72159e-13
3.20117e-14
1.00101e-13
7.95047e-14
4.8616e-14
2.61929e-14
1.30054e-14
6.06861e-15
2.68515e-15
1.12988e-15
4.51286e-16
1.69771e-16
5.90958e-17
1.82666e-17
4.44253e-18
3.7108e-19
-5.01128e-19
-4.85917e-19
-3.14256e-19
-1.73844e-19
-8.79559e-20
-4.18359e-20
-1.89605e-20
-8.24418e-21
-3.44947e-21
-1.38907e-21
-5.36863e-22
-1.97825e-22
-6.8574e-23
-2.17453e-23
-5.88586e-24
-1.04208e-24
1.68284e-25
3.18332e-25
2.31294e-25
1.34119e-25
6.97088e-26
3.38406e-26
1.56408e-26
6.9529e-27
2.98963e-27
1.24714e-27
5.05296e-28
1.98739e-28
7.57056e-29
2.77986e-29
9.75428e-30
3.2178e-30
9.64539e-31
2.41287e-31
-1.88411e-33
0.99994
1.00091
1.00029
0.99554
0.992819
1.00355
1.02848
1.04829
1.03249
0.958695
0.826145
0.655282
0.476411
0.316483
0.191156
0.103882
0.0495943
0.019552
0.00504593
-0.000725107
-0.00224492
-0.0020667
-0.00143797
-0.000856359
-0.000453268
-0.000214975
-9.00892e-05
-3.16182e-05
-7.55392e-06
6.33741e-07
2.4185e-06
2.10142e-06
1.37808e-06
7.82343e-07
4.01567e-07
1.89311e-07
8.20801e-08
3.23218e-08
1.11285e-08
2.97322e-09
2.67152e-10
-3.94334e-10
-4.05782e-10
-2.76041e-10
-1.58941e-10
-8.27362e-11
-3.99578e-11
-1.80983e-11
-7.70604e-12
-3.06905e-12
-1.12571e-12
-3.66058e-13
-9.43829e-14
-9.67931e-15
1.00175e-14
1.0441e-14
6.99239e-15
3.96417e-15
2.04225e-15
9.83585e-16
4.48774e-16
1.95151e-16
8.09907e-17
3.19878e-17
1.19233e-17
4.11884e-18
1.2649e-18
3.05721e-19
2.50641e-20
-3.46084e-20
-3.3399e-20
-2.15708e-20
-1.19344e-20
-6.0464e-21
-2.8834e-21
-1.31193e-21
-5.73575e-22
-2.41776e-22
-9.83331e-23
-3.85209e-23
-1.44651e-23
-5.1569e-24
-1.71243e-24
-5.07757e-25
-1.18948e-25
-9.46574e-27
1.28154e-26
1.21123e-26
7.69027e-27
4.19753e-27
2.10568e-27
9.98165e-28
4.53414e-28
1.98898e-28
8.46262e-29
3.50023e-29
1.40828e-29
5.50723e-30
2.08829e-30
6.86914e-31
0.999939
1.00078
1.00033
0.996478
0.993978
1.00167
1.02076
1.03785
1.03005
0.97736
0.873361
0.728341
0.564129
0.404782
0.268532
0.164185
0.0919189
0.0464723
0.0205625
0.00731087
0.00140232
-0.000714377
-0.00113213
-0.000939462
-0.000624955
-0.000363836
-0.000190898
-9.09022e-05
-3.8899e-05
-1.44147e-05
-4.09763e-06
-3.67261e-07
6.34595e-07
6.76947e-07
4.78872e-07
2.85367e-07
1.52715e-07
7.51886e-08
3.43368e-08
1.45088e-08
5.58695e-09
1.88137e-09
4.86892e-10
3.4872e-11
-7.13465e-11
-7.03475e-11
-4.72461e-11
-2.70731e-11
-1.40891e-11
-6.82849e-12
-3.11625e-12
-1.34358e-12
-5.45771e-13
-2.0669e-13
-7.11809e-14
-2.09215e-14
-4.14828e-15
4.85732e-16
1.2126e-15
9.42108e-16
5.71779e-16
3.07691e-16
1.53307e-16
7.21061e-17
3.23176e-17
1.38594e-17
5.68877e-18
2.22721e-18
8.24535e-19
2.83418e-19
8.68011e-20
2.10184e-20
1.81085e-21
-2.28963e-21
-2.23379e-21
-1.4472e-21
-8.02498e-22
-4.07614e-22
-1.95017e-22
-8.91082e-23
-3.91718e-23
-1.66287e-23
-6.82517e-24
-2.70604e-24
-1.03286e-24
-3.76871e-25
-1.29704e-25
-4.09645e-26
-1.11035e-26
-2.01077e-27
2.70298e-28
5.67139e-28
4.16826e-28
2.42966e-28
1.26821e-28
6.18507e-29
2.87456e-29
1.28662e-29
5.5742e-30
2.2828e-30
0.999948
1.00071
1.00024
0.996865
0.995029
1.00184
1.01733
1.0303
1.02319
0.98033
0.894804
0.77137
0.624678
0.473822
0.336066
0.222591
0.137396
0.0787149
0.0415115
0.0198109
0.008231
0.00266275
0.000337516
-0.000418964
-0.00051853
-0.000404082
-0.000261134
-0.000149943
-7.84243e-05
-3.76202e-05
-1.64484e-05
-6.39298e-06
-2.05403e-06
-4.00408e-07
1.11075e-07
1.96674e-07
1.5626e-07
9.89576e-08
5.54018e-08
2.84355e-08
1.35789e-08
6.05696e-09
2.51191e-09
9.52611e-10
3.16628e-10
8.08577e-11
5.44425e-12
-1.19945e-11
-1.1705e-11
-7.83708e-12
-4.49092e-12
-2.34311e-12
-1.14153e-12
-5.25277e-13
-2.29275e-13
-9.48319e-14
-3.69137e-14
-1.33009e-14
-4.26954e-15
-1.09387e-15
-1.15834e-16
1.10343e-16
1.16207e-16
7.803e-17
4.4384e-17
2.2989e-17
1.11623e-17
5.15206e-18
2.27618e-18
9.65258e-19
3.92741e-19
1.52731e-19
5.62712e-20
1.9291e-20
5.91185e-21
1.44452e-21
1.37689e-22
-1.45319e-22
-1.45661e-22
-9.50792e-23
-5.29508e-23
-2.69948e-23
-1.29658e-23
-5.9513e-24
-2.63056e-24
-1.12427e-24
-4.65385e-25
-1.8653e-25
-7.22204e-26
-2.68737e-26
-9.51817e-27
-3.14947e-27
-9.34906e-28
-2.21972e-28
-2.0589e-29
2.1318e-29
2.09414e-29
1.34403e-29
7.36243e-30
3.89665e-30
0.999956
1.00069
1.00014
0.996949
0.995656
1.00255
1.01638
1.02615
1.01705
0.977221
0.901589
0.793091
0.66185
0.522268
0.388933
0.273026
0.180501
0.112229
0.0654577
0.0356335
0.0179296
0.0081759
0.00322969
0.000963381
6.56206e-05
-0.000202869
-0.000221852
-0.000166311
-0.000105549
-6.01534e-05
-3.14846e-05
-1.52446e-05
-6.80607e-06
-2.75614e-06
-9.68317e-07
-2.55748e-07
-1.2062e-08
4.79712e-08
4.70868e-08
3.24461e-08
1.91563e-08
1.0265e-08
5.10941e-09
2.38497e-09
1.04556e-09
4.27969e-10
1.60802e-10
5.31889e-11
1.36423e-11
1.04517e-12
-1.88812e-12
-1.87619e-12
-1.26329e-12
-7.27033e-13
-3.81236e-13
-1.86962e-13
-8.67972e-14
-3.83443e-14
-1.61258e-14
-6.42861e-15
-2.40281e-15
-8.21944e-16
-2.42561e-16
-5.01868e-17
3.37588e-18
1.24073e-17
9.92367e-18
6.09704e-18
3.31157e-18
1.66592e-18
7.92504e-19
3.60264e-19
1.57318e-19
6.61123e-20
2.67138e-20
1.03364e-20
3.79658e-21
1.30072e-21
4.0002e-22
9.92181e-23
1.07583e-23
-8.83668e-24
-9.27229e-24
-6.12579e-24
-3.4333e-24
-1.75876e-24
-8.48581e-25
-3.91389e-25
-1.73958e-25
-7.48358e-26
-3.12252e-26
-1.26398e-26
-4.95633e-27
-1.87564e-27
-6.80211e-28
-2.33321e-28
-7.37368e-29
-2.01657e-29
-3.85513e-30
1.27207e-30
0.999961
1.00068
1.00008
0.996918
0.995936
1.00316
1.01647
1.02437
1.01305
0.973091
0.90165
0.801946
0.682022
0.552965
0.426501
0.312514
0.217355
0.14339
0.0896409
0.0530156
0.02957
0.0154646
0.00750192
0.00330348
0.00125638
0.00035251
8.53894e-06
-8.7803e-05
-8.9995e-05
-6.59537e-05
-4.14338e-05
-2.35473e-05
-1.23679e-05
-6.05119e-06
-2.75552e-06
-1.15574e-06
-4.34329e-07
-1.35674e-07
-2.56661e-08
7.34271e-09
1.26118e-08
9.94066e-09
6.28809e-09
3.53703e-09
1.83543e-09
8.928e-10
4.097e-10
1.77375e-10
7.19836e-11
2.69306e-11
8.927e-12
2.33385e-12
2.25817e-13
-2.7804e-13
-2.90195e-13
-1.98209e-13
-1.15037e-13
-6.07661e-14
-3.00362e-14
-1.4076e-14
-6.29223e-15
-2.68734e-15
-1.09406e-15
-4.21536e-16
-1.51328e-16
-4.88988e-17
-1.29508e-17
-1.7662e-18
9.45564e-19
1.1376e-18
7.88923e-19
4.56362e-19
2.39445e-19
1.17722e-19
5.50853e-20
2.47322e-20
1.06975e-20
4.46289e-21
1.79359e-21
6.91508e-22
2.53583e-22
8.69726e-23
2.69064e-23
6.80553e-24
8.46131e-25
-5.1237e-25
-5.76547e-25
-3.87451e-25
-2.19006e-25
-1.12859e-25
-5.47352e-26
-2.5376e-26
-1.1342e-26
-4.9105e-27
-2.06438e-27
-8.43313e-28
-3.34468e-28
-1.28452e-28
-4.75591e-29
-1.45454e-29
0.999963
1.00069
1.00005
0.996868
0.996021
1.00353
1.01683
1.02387
1.01095
0.969883
0.899553
0.804223
0.691455
0.570515
0.450897
0.340848
0.246191
0.169788
0.111743
0.0701319
0.0419284
0.0238304
0.0128308
0.00650359
0.00306808
0.00131702
0.000488353
0.000132284
4.4976e-07
-3.50179e-05
-3.49037e-05
-2.53112e-05
-1.58388e-05
-9.00911e-06
-4.75823e-06
-2.35388e-06
-1.09186e-06
-4.71971e-07
-1.86874e-07
-6.49737e-08
-1.74486e-08
-1.35468e-09
2.69016e-09
2.77433e-09
1.94186e-09
1.15994e-09
6.29903e-10
3.19068e-10
1.52521e-10
6.91101e-11
2.96601e-11
1.19778e-11
4.48011e-12
1.49656e-12
4.03062e-13
4.99225e-14
-3.78812e-14
-4.33024e-14
-3.0294e-14
-1.7807e-14
-9.49742e-15
-4.73769e-15
-2.24241e-15
-1.01416e-15
-4.39436e-16
-1.82288e-16
-7.20647e-17
-2.68751e-17
-9.25519e-18
-2.80125e-18
-6.37512e-19
-1.45716e-20
1.0746e-19
9.40007e-20
5.96604e-20
3.30356e-20
1.68744e-20
8.14461e-21
3.75999e-21
1.67102e-21
7.17157e-22
2.97447e-22
1.1905e-22
4.57896e-23
1.67854e-23
5.77149e-24
1.79962e-24
4.65673e-25
6.60806e-26
-2.80295e-26
-3.50152e-26
-2.40745e-26
-1.3756e-26
-7.1396e-27
-3.48291e-27
-1.62364e-27
-7.29849e-28
-3.17982e-28
-1.34591e-28
-5.24831e-29
0.999964
1.00069
1.00004
0.996831
0.996025
1.0037
1.01714
1.0239
1.01007
0.967918
0.897397
0.803796
0.694971
0.579469
0.465398
0.359604
0.267035
0.190415
0.130306
0.0855359
0.05383
0.032453
0.0187186
0.0103067
0.00539705
0.00267035
0.00123401
0.000520709
0.000190528
5.12623e-05
4.76355e-07
-1.30301e-05
-1.30019e-05
-9.42547e-06
-5.90613e-06
-3.37265e-06
-1.79414e-06
-8.97734e-07
-4.23653e-07
-1.87972e-07
-7.75866e-08
-2.90602e-08
-9.27621e-09
-2.00354e-09
2.35568e-10
6.62104e-10
5.53516e-10
3.594e-10
2.06087e-10
1.09002e-10
5.42052e-11
2.55708e-11
1.14799e-11
4.89872e-12
1.97434e-12
7.40673e-13
2.50364e-13
6.99055e-14
1.0773e-14
-4.63417e-15
-6.21884e-15
-4.5098e-15
-2.6978e-15
-1.45644e-15
-7.34202e-16
-3.51188e-16
-1.60685e-16
-7.05846e-17
-2.97816e-17
-1.20382e-17
-4.63082e-18
-1.67239e-18
-5.51018e-19
-1.54165e-19
-2.76031e-20
5.43726e-21
9.7755e-21
7.27577e-21
4.34549e-21
2.32778e-21
1.16389e-21
5.53379e-22
2.5264e-22
1.11336e-22
4.74791e-23
1.96012e-23
7.82138e-24
3.00421e-24
1.10203e-24
3.80324e-25
1.19706e-25
3.17519e-26
5.08669e-27
-1.4148e-27
-2.07527e-27
-1.4701e-27
-8.51353e-28
-4.45628e-28
-2.18471e-28
-1.02844e-28
0.999964
1.00069
1.00004
0.996811
0.996007
1.00377
1.01734
1.02405
1.0098
0.966911
0.89585
0.802659
0.695695
0.583419
0.473256
0.371092
0.281044
0.205411
0.144787
0.0983706
0.064393
0.0405942
0.0246317
0.0143731
0.00805393
0.00432365
0.00221515
0.00107612
0.00049011
0.000204757
7.47257e-05
2.04849e-05
7.86456e-07
-4.53299e-06
-4.66062e-06
-3.41053e-06
-2.15055e-06
-1.23632e-06
-6.63384e-07
-3.35839e-07
-1.61068e-07
-7.31187e-08
-3.12222e-08
-1.23542e-08
-4.37846e-09
-1.26674e-09
-1.89075e-10
1.07036e-10
1.39372e-10
1.03607e-10
6.38866e-11
3.55411e-11
1.84232e-11
9.03283e-12
4.21894e-12
1.88171e-12
8.00296e-13
3.22647e-13
1.21697e-13
4.1742e-14
1.21161e-14
2.23648e-15
-4.67649e-16
-8.54902e-16
-6.5323e-16
-4.00006e-16
-2.19207e-16
-1.11839e-16
-5.41007e-17
-2.50452e-17
-1.11472e-17
-4.7773e-18
-1.96919e-18
-7.77422e-19
-2.9138e-19
-1.01876e-19
-3.19791e-20
-8.10173e-21
-9.04406e-22
7.43042e-22
7.97989e-22
5.37849e-22
3.07293e-22
1.60394e-22
7.88206e-23
3.7013e-23
1.67424e-23
7.32688e-24
3.1084e-24
1.27863e-24
5.09119e-25
1.95457e-25
7.18106e-26
2.4898e-26
7.9189e-27
2.1552e-27
3.84669e-28
-6.25126e-29
-1.18885e-28
-1.01843e-28
0.999964
1.00069
1.00004
0.996801
0.995989
1.00378
1.01743
1.02419
1.00979
0.966481
0.894936
0.801632
0.695371
0.584789
0.477084
0.377598
0.289829
0.215611
0.155359
0.108363
0.0731287
0.0477295
0.0301171
0.0183644
0.0108145
0.00614463
0.00336346
0.00176948
0.000891296
0.000427167
0.000192703
8.01841e-05
2.94407e-05
8.37638e-06
6.88249e-07
-1.46297e-06
-1.60686e-06
-1.19956e-06
-7.64987e-07
-4.43956e-07
-2.40619e-07
-1.23286e-07
-6.00401e-08
-2.78166e-08
-1.22199e-08
-5.04446e-09
-1.91894e-09
-6.42937e-10
-1.65354e-10
-9.88439e-12
2.71432e-11
2.68596e-11
1.85212e-11
1.10018e-11
5.98136e-12
3.05265e-12
1.48054e-12
6.86428e-13
3.04813e-13
1.29454e-13
5.23007e-14
1.98686e-14
6.92667e-15
2.09026e-15
4.46184e-16
-2.60977e-17
-1.113e-16
-9.18478e-17
-5.80086e-17
-3.23798e-17
-1.67497e-17
-8.20138e-18
-3.84239e-18
-1.73219e-18
-7.5326e-19
-3.15982e-19
-1.27553e-19
-4.92666e-20
-1.80054e-20
-6.08897e-21
-1.80999e-21
-4.01528e-22
-3.93225e-24
7.11609e-23
6.09581e-23
3.84046e-23
2.1213e-23
1.08444e-23
5.25381e-24
2.44173e-24
1.09599e-24
4.76874e-25
2.01467e-25
8.26434e-26
3.28621e-26
1.2619e-26
4.64674e-27
1.61977e-27
5.22547e-28
1.02767e-28
0.999964
1.00069
1.00004
0.996798
0.995978
1.00378
1.01747
1.02429
1.00985
0.966341
0.894471
0.80093
0.694825
0.585016
0.478702
0.380984
0.294975
0.22213
0.162621
0.11568
0.0799142
0.0535892
0.03487
0.0220088
0.0134696
0.00798967
0.00459021
0.00255174
0.00137051
0.000709498
0.000352738
0.000167427
7.51164e-05
3.12767e-05
1.16266e-05
3.46893e-06
4.56209e-07
-4.27742e-07
-5.31168e-07
-4.09808e-07
-2.65807e-07
-1.56184e-07
-8.56325e-08
-4.44264e-08
-2.19567e-08
-1.0362e-08
-4.66399e-09
-1.99176e-09
-7.97731e-10
-2.92411e-10
-9.24763e-11
-2.05508e-11
1.38658e-12
5.70916e-12
4.88148e-12
3.1959e-12
1.84618e-12
9.86111e-13
4.97249e-13
2.39182e-13
1.10303e-13
4.88501e-14
2.07485e-14
8.41164e-15
3.22229e-15
1.14264e-15
3.57908e-16
8.58197e-17
4.02662e-18
-1.34316e-17
-1.24836e-17
-8.21691e-18
-4.6922e-18
-2.46636e-18
-1.22376e-18
-5.80484e-19
-2.65021e-19
-1.16852e-19
-4.9808e-20
-2.05016e-20
-8.11987e-21
-3.07223e-21
-1.09527e-21
-3.57699e-22
-9.98515e-23
-1.82808e-23
3.00173e-24
5.916e-24
4.4475e-24
2.66809e-24
1.43515e-24
7.21334e-25
3.45353e-25
1.59121e-25
7.09634e-26
3.07299e-26
1.29392e-26
5.29703e-27
2.1062e-27
7.27155e-28
0.999964
1.00069
1.00004
0.996797
0.995972
1.00377
1.01749
1.02434
1.00991
0.966322
0.894269
0.800523
0.694367
0.584843
0.479236
0.382579
0.297783
0.226049
0.167332
0.120746
0.0848946
0.05813
0.0387477
0.0251336
0.0158595
0.00973214
0.00580574
0.00336536
0.00189424
0.00103428
0.000547004
0.000279587
0.000137632
6.48983e-05
2.90497e-05
1.21457e-05
4.58975e-06
1.44102e-06
2.59116e-07
-1.06167e-07
-1.67153e-07
-1.35708e-07
-9.01487e-08
-5.38161e-08
-2.99015e-08
-1.57182e-08
-7.88138e-09
-3.78343e-09
-1.73958e-09
-7.64032e-10
-3.18353e-10
-1.24091e-10
-4.39233e-11
-1.30906e-11
-2.4105e-12
6.30444e-13
1.08835e-12
8.49925e-13
5.3601e-13
3.03141e-13
1.59715e-13
7.9792e-14
3.81439e-14
1.75265e-14
7.75196e-15
3.29672e-15
1.34249e-15
5.18962e-16
1.87198e-16
6.07081e-17
1.59802e-17
1.9641e-18
-1.43028e-18
-1.62817e-18
-1.13426e-18
-6.66475e-19
-3.56966e-19
-1.79742e-19
-8.63799e-20
-3.99421e-20
-1.78478e-20
-7.72147e-21
-3.23408e-21
-1.30873e-21
-5.09315e-22
-1.8895e-22
-6.57161e-23
-2.06822e-23
-5.3595e-24
-7.16637e-25
3.81774e-25
4.54407e-25
3.13553e-25
1.8125e-25
9.5438e-26
4.73014e-26
2.2423e-26
1.02567e-26
4.54781e-27
1.86891e-27
0.999964
1.00069
1.00004
0.996797
0.995969
1.00377
1.01749
1.02436
1.00995
0.96634
0.894198
0.800316
0.694063
0.584601
0.47931
0.383234
0.299202
0.228267
0.170225
0.124073
0.0883644
0.061468
0.0417451
0.0276675
0.0178891
0.0112804
0.00693504
0.00415562
0.0024262
0.00137947
0.000763307
0.000410642
0.000214478
0.000108527
5.30333e-05
2.49039e-05
1.11486e-05
4.69179e-06
1.80621e-06
5.96043e-07
1.33221e-07
-1.73578e-08
-4.93664e-08
-4.33899e-08
-2.9796e-08
-1.81496e-08
-1.0242e-08
-5.4604e-09
-2.77784e-09
-1.35516e-09
-6.35109e-10
-2.8569e-10
-1.22873e-10
-5.01117e-11
-1.90644e-11
-6.53115e-12
-1.83248e-12
-2.62201e-13
1.53833e-13
1.94775e-13
1.43124e-13
8.77969e-14
4.88532e-14
2.5468e-14
1.26338e-14
6.01232e-15
2.75619e-15
1.21884e-15
5.19475e-16
2.12633e-16
8.29779e-17
3.04359e-17
1.0189e-17
2.89207e-18
5.18407e-19
-1.15121e-19
-2.01097e-19
-1.52003e-19
-9.26513e-20
-5.07521e-20
-2.59827e-20
-1.26625e-20
-5.93193e-21
-2.68564e-21
-1.17833e-21
-5.01432e-22
-2.06777e-22
-8.23932e-23
-3.15444e-23
-1.14832e-23
-3.89573e-24
-1.1783e-24
-2.78916e-25