/*--------------------------------*- C++ -*----------------------------------*\
  =========                 |
  \\      /  F ield         | OpenFOAM: The Open Source CFD Toolbox
   \\    /   O peration     | Website:  https://openfoam.org
    \\  /    A nd           | Version:  7
     \\/     M anipulation  |
\*---------------------------------------------------------------------------*/
FoamFile
{
    version     2.0;
    format      ascii;
    class       volScalarField;
    location    "0.2";
    object      T;
}
// * * * * * * * * * * * * * * * * * * * * * * * * * * * * * * * * * * * * * //

dimensions      [0 0 0 1 0 0 0];

internalField   nonuniform List<scalar> 
10000
(
0.5
0.0669146
-0.0353174
-0.0277119
-0.00789919
0.00113067
0.00220831
0.000964141
3.86028e-05
-0.000205716
-0.000127545
-2.02271e-05
2.48379e-05
2.35276e-05
9.07337e-06
-1.12374e-06
-4.37612e-06
-3.669e-06
-1.96455e-06
-6.6378e-07
-1.56449e-08
1.83354e-07
1.76077e-07
1.12968e-07
5.71689e-08
2.30691e-08
6.55e-09
2.27243e-10
-1.38506e-09
-1.30001e-09
-8.40306e-10
-4.50382e-10
-2.09761e-10
-8.50949e-11
-2.88464e-11
-6.85234e-12
1.90262e-13
1.61764e-12
1.3654e-12
8.46921e-13
4.50785e-13
2.15737e-13
9.42842e-14
3.75734e-14
1.33776e-14
3.99582e-15
7.79629e-16
-1.1535e-16
-2.48333e-16
-1.87762e-16
-1.11002e-16
-5.78357e-17
-2.76617e-17
-1.23513e-17
-5.179e-18
-2.03524e-18
-7.4123e-19
-2.4316e-19
-6.65285e-20
-1.09183e-20
3.02655e-21
4.48248e-21
3.16297e-21
1.80857e-21
9.26606e-22
4.41299e-22
1.98666e-22
8.52162e-23
3.49275e-23
1.36627e-23
5.07104e-24
1.7624e-24
5.57219e-25
1.48877e-25
2.49296e-26
-5.39891e-27
-8.68888e-27
-6.13875e-27
-3.49878e-27
-1.79083e-27
-8.55813e-28
-3.88838e-28
-1.69567e-28
-7.13274e-29
-2.90033e-29
-1.13989e-29
-4.31966e-30
-1.5696e-30
-5.41024e-31
-1.73175e-31
-4.90528e-32
-1.05976e-32
-3.6127e-34
1.46767e-33
1.23699e-33
7.48948e-34
3.95846e-34
1.9353e-34
8.95743e-35
4.07181e-35
0.933085
0.499999
0.14482
-0.0139053
-0.04117
-0.0230298
-0.00507678
0.00215425
0.00250139
0.00099736
-2.07528e-05
-0.000275898
-0.000168797
-2.74657e-05
3.8036e-05
4.16803e-05
2.30877e-05
6.41584e-06
-1.8802e-06
-3.86289e-06
-3.04554e-06
-1.69695e-06
-7.04186e-07
-1.80241e-07
2.40409e-08
6.94705e-08
5.73077e-08
3.47057e-08
1.73596e-08
7.29933e-09
2.4526e-09
4.98776e-10
-1.15316e-10
-2.13831e-10
-1.62908e-10
-9.63505e-11
-4.91748e-11
-2.23469e-11
-9.05869e-12
-3.18779e-12
-8.82803e-13
-1.08051e-13
8.63275e-14
9.5768e-14
6.46677e-14
3.61964e-14
1.80895e-14
8.29266e-15
3.5176e-15
1.37597e-15
4.87246e-16
1.48305e-16
3.23858e-17
-7.66829e-19
-6.7162e-18
-5.47664e-18
-3.32796e-18
-1.76354e-18
-8.56363e-19
-3.89063e-19
-1.66853e-19
-6.76761e-20
-2.58497e-20
-9.17868e-21
-2.93888e-21
-7.81972e-22
-1.20296e-22
3.99278e-23
5.41051e-23
3.73628e-23
2.11153e-23
1.07409e-23
5.09538e-24
2.29177e-24
9.853e-25
4.0634e-25
1.60752e-25
6.07953e-26
2.17979e-26
7.2826e-27
2.1821e-27
5.26762e-28
5.53044e-29
-4.46995e-29
-4.55274e-29
-2.92365e-29
-1.59281e-29
-7.93009e-30
-3.71773e-30
-1.6656e-30
-7.18813e-31
-3.001e-31
-1.21433e-31
-4.76224e-32
-1.80642e-32
-6.5975e-33
-2.30008e-33
-7.52989e-34
-2.24004e-34
-3.3939e-35
1.03532
0.85518
0.500003
0.182451
0.0083
-0.0419375
-0.0324506
-0.0120116
4.6999e-05
0.0030886
0.00201299
0.000483289
-0.00025753
-0.000333959
-0.000168399
-2.09055e-05
4.19857e-05
4.56394e-05
2.81205e-05
1.14052e-05
1.85923e-06
-1.7118e-06
-2.14385e-06
-1.51185e-06
-8.12976e-07
-3.46559e-07
-1.06813e-07
-9.67386e-09
1.76583e-08
1.82815e-08
1.22213e-08
6.65623e-09
3.117e-09
1.25691e-09
4.14432e-10
8.78249e-11
-1.31698e-11
-3.04174e-11
-2.37154e-11
-1.42062e-11
-7.36601e-12
-3.43095e-12
-1.44889e-12
-5.49004e-13
-1.79002e-13
-4.34204e-14
-1.55072e-15
7.23264e-15
6.44998e-15
4.06409e-15
2.19369e-15
1.07264e-15
4.85552e-16
2.04979e-16
8.05056e-17
2.90054e-17
9.23481e-18
2.32293e-18
2.28471e-19
-2.37902e-19
-2.3992e-19
-1.55877e-19
-8.56674e-20
-4.27231e-20
-1.98809e-20
-8.74245e-21
-3.65139e-21
-1.44813e-21
-5.42208e-22
-1.88928e-22
-5.92864e-23
-1.53327e-23
-2.14505e-24
9.31202e-25
1.13662e-24
7.66504e-25
4.28184e-25
2.16345e-25
1.0225e-25
4.59284e-26
1.97656e-26
8.18037e-27
3.258e-27
1.24583e-27
4.54637e-28
1.56394e-28
4.9435e-29
1.35004e-29
2.55818e-30
-2.09899e-31
-5.99429e-31
-4.47858e-31
-2.60274e-31
-1.34589e-31
-6.48069e-32
-2.96658e-32
-1.30505e-32
-5.55086e-33
-2.28782e-33
-8.77984e-34
1.02771
1.01391
0.817553
0.499994
0.206379
0.0268033
-0.0388643
-0.0384326
-0.018394
-0.00295801
0.00295111
0.00293214
0.00123255
-4.22417e-06
-0.000414163
-0.000344241
-0.00015644
-2.223e-05
3.2529e-05
3.77927e-05
2.52381e-05
1.2178e-05
3.96924e-06
2.28464e-07
-8.87003e-07
-8.81508e-07
-5.78044e-07
-3.03168e-07
-1.31236e-07
-4.45159e-08
-8.55013e-09
2.85423e-09
4.54237e-09
3.39143e-09
1.98265e-09
9.96575e-10
4.41427e-10
1.70765e-10
5.44927e-11
1.11998e-11
-1.73788e-12
-3.84407e-12
-2.96551e-12
-1.77027e-12
-9.20412e-13
-4.33006e-13
-1.86561e-13
-7.33444e-14
-2.57074e-14
-7.48976e-15
-1.35032e-15
3.0618e-16
5.18897e-16
3.79422e-16
2.20929e-16
1.13983e-16
5.40896e-17
2.39753e-17
9.97434e-18
3.88231e-18
1.3951e-18
4.47577e-19
1.16588e-19
1.51311e-20
-8.65377e-21
-9.91331e-21
-6.64189e-21
-3.70654e-21
-1.86923e-21
-8.79074e-22
-3.91148e-22
-1.65747e-22
-6.6991e-23
-2.57516e-23
-9.33361e-24
-3.12948e-24
-9.28687e-25
-2.13457e-25
-1.28204e-26
2.6562e-26
2.38683e-26
1.48536e-26
7.97659e-27
3.93356e-27
1.82835e-27
8.11413e-28
3.46136e-28
1.42367e-28
5.64821e-29
2.15678e-29
7.88321e-30
2.72793e-30
8.74182e-31
2.46562e-31
5.2078e-32
6.63829e-34
-8.16683e-33
-6.67806e-33
-3.99344e-33
-2.27762e-33
1.0079
1.04117
0.991692
0.793598
0.499995
0.223389
0.0421965
-0.0342808
-0.0421326
-0.0239789
-0.00639108
0.00221808
0.00367062
0.00218227
0.000560213
-0.0002713
-0.000434746
-0.000302852
-0.000134424
-2.66704e-05
1.76251e-05
2.48265e-05
1.81122e-05
9.81718e-06
4.08926e-06
1.12309e-06
-4.81504e-08
-3.3555e-07
-2.94821e-07
-1.85078e-07
-9.58675e-08
-4.21733e-08
-1.53061e-08
-3.91299e-09
1.17738e-11
8.92984e-10
7.875e-10
4.97957e-10
2.66377e-10
1.26245e-10
5.35466e-11
2.00129e-11
6.19358e-12
1.22015e-12
-2.17718e-13
-4.36136e-13
-3.30905e-13
-1.96285e-13
-1.02034e-13
-4.82793e-14
-2.10764e-14
-8.48916e-15
-3.11123e-15
-9.9623e-16
-2.44911e-16
-1.6441e-17
3.26782e-17
3.05931e-17
1.9542e-17
1.06554e-17
5.277e-18
2.43333e-18
1.05578e-18
4.32128e-19
1.66141e-19
5.91935e-20
1.89162e-20
4.9549e-21
6.86907e-22
-3.23475e-22
-3.9032e-22
-2.64172e-22
-1.4814e-22
-7.50153e-23
-3.54477e-23
-1.58713e-23
-6.7824e-24
-2.77332e-24
-1.08368e-24
-4.02352e-25
-1.40148e-25
-4.45583e-26
-1.20724e-26
-2.14029e-27
3.37882e-28
6.42798e-28
4.64475e-28
2.67181e-28
1.3748e-28
6.59391e-29
3.00437e-29
1.31323e-29
5.53537e-30
2.25497e-30
8.87764e-31
3.36949e-31
1.22611e-31
4.23179e-32
1.35807e-32
2.8194e-33
0.998872
1.02303
1.04192
0.973189
0.776647
0.500032
0.236357
0.055196
-0.029195
-0.0444204
-0.0289683
-0.0102153
0.000798766
0.00401272
0.0031532
0.00138917
0.000163411
-0.000325794
-0.000359705
-0.000232276
-0.00010515
-2.77129e-05
5.36318e-06
1.31307e-05
1.08041e-05
6.47129e-06
3.10977e-06
1.17636e-06
2.83491e-07
-3.65296e-08
-1.03319e-07
-8.48873e-08
-5.20368e-08
-2.68745e-08
-1.20353e-08
-4.60726e-09
-1.38523e-09
-2.02043e-10
1.26319e-10
1.55157e-10
1.08955e-10
6.22457e-11
3.12918e-11
1.41951e-11
5.82322e-12
2.1181e-12
6.39452e-13
1.21451e-13
-2.4302e-14
-4.50989e-14
-3.37546e-14
-1.99198e-14
-1.03537e-14
-4.92188e-15
-2.17096e-15
-8.9065e-16
-3.37038e-16
-1.14677e-16
-3.26933e-17
-5.8533e-18
1.22727e-18
2.12417e-18
1.55008e-18
9.02101e-19
4.66886e-19
2.23318e-19
1.00385e-19
4.27043e-20
1.7205e-20
6.53019e-21
2.30212e-21
7.29321e-22
1.89712e-22
2.61796e-23
-1.22323e-23
-1.47269e-23
-9.9486e-24
-5.57444e-24
-2.82401e-24
-1.33687e-24
-6.00615e-25
-2.58046e-25
-1.06351e-25
-4.20336e-26
-1.58693e-26
-5.67108e-27
-1.88238e-27
-5.56123e-28
-1.29027e-28
-9.55509e-30
1.4305e-29
1.3238e-29
8.2973e-30
4.47264e-30
2.21371e-30
1.03378e-30
4.61724e-31
1.98681e-31
8.26067e-32
3.16835e-32
0.997795
1.00507
1.03243
1.03889
0.957887
0.763694
0.499952
0.246653
0.0664141
-0.0239383
-0.0457583
-0.03356
-0.0145182
-0.00150878
0.00362338
0.00380539
0.00225549
0.000805836
1.88173e-06
-0.000263604
-0.000252129
-0.000158391
-7.44546e-05
-2.40251e-05
-1.37617e-06
5.40938e-06
5.43586e-06
3.62138e-06
1.93932e-06
8.63761e-07
3.06991e-07
6.79625e-08
-1.24329e-08
-2.74224e-08
-2.18002e-08
-1.32306e-08
-6.8584e-09
-3.13005e-09
-1.25212e-09
-4.18878e-10
-9.67227e-11
5.27363e-12
2.52789e-11
2.09817e-11
1.29884e-11
6.92831e-12
3.32826e-12
1.46054e-12
5.83973e-13
2.08046e-13
6.16758e-14
1.14417e-14
-2.41652e-15
-4.3131e-15
-3.20221e-15
-1.88449e-15
-9.80362e-16
-4.68163e-16
-2.08363e-16
-8.67859e-17
-3.36706e-17
-1.19669e-17
-3.73289e-18
-8.94522e-19
-5.4419e-20
1.20336e-19
1.10579e-19
7.01145e-20
3.81494e-20
1.89395e-20
8.79748e-21
3.86753e-21
1.61628e-21
6.41667e-22
2.40498e-22
8.38329e-23
2.62664e-23
6.73786e-24
8.8913e-25
-4.60309e-25
-5.35037e-25
-3.5823e-25
-1.99915e-25
-1.01109e-25
-4.787e-26
-2.15446e-26
-9.2893e-27
-3.85034e-27
-1.53473e-27
-5.86678e-28
-2.13619e-28
-7.3069e-29
-2.28026e-29
-6.03059e-30
-1.0047e-30
2.11809e-31
3.42316e-31
2.4128e-31
1.36873e-31
7.42845e-32
0.999038
0.997834
1.012
1.03847
1.03437
0.944827
0.753133
0.499776
0.255323
0.0766469
-0.0182437
-0.0460371
-0.037572
-0.0191383
-0.00472896
0.00226418
0.00379328
0.00284075
0.00144352
0.000450241
-3.17552e-05
-0.000172001
-0.000155463
-9.75651e-05
-4.78822e-05
-1.78211e-05
-3.60051e-06
1.42564e-06
2.27976e-06
1.74772e-06
1.03617e-06
5.17134e-07
2.19379e-07
7.51681e-08
1.60793e-08
-3.07602e-09
-6.48225e-09
-5.10831e-09
-3.10086e-09
-1.62122e-09
-7.54399e-10
-3.13259e-10
-1.13118e-10
-3.23592e-11
-4.36129e-12
2.9937e-12
3.51838e-12
2.43868e-12
1.39187e-12
7.06706e-13
3.2805e-13
1.40332e-13
5.50167e-14
1.9302e-14
5.65525e-15
1.04117e-15
-2.16254e-16
-3.86048e-16
-2.86057e-16
-1.68316e-16
-8.77467e-17
-4.21054e-17
-1.88957e-17
-7.97388e-18
-3.15752e-18
-1.16039e-18
-3.84989e-19
-1.07129e-19
-1.84481e-20
4.31171e-21
6.97745e-21
5.02252e-21
2.90678e-21
1.50322e-21
7.21486e-22
3.2691e-22
1.40947e-22
5.79718e-23
2.27046e-23
8.40762e-24
2.8973e-24
8.96508e-25
2.25696e-25
2.75473e-26
-1.70335e-26
-1.87949e-26
-1.24216e-26
-6.89083e-27
-3.47497e-27
-1.6437e-27
-7.40318e-28
-3.19964e-28
-1.33187e-28
-5.34367e-29
-2.0626e-29
-7.61934e-30
-2.66529e-30
-8.64246e-31
-2.48236e-31
-2.72909e-32
0.999961
0.997484
0.999959
1.01845
1.04217
1.02915
0.933407
0.744312
0.499779
0.263243
0.0867557
-0.0114434
-0.044643
-0.0403643
-0.0235073
-0.00851531
4.64412e-07
0.00296512
0.00290057
0.00184763
0.000860416
0.000252187
-2.09701e-05
-9.61054e-05
-8.62274e-05
-5.49574e-05
-2.81759e-05
-1.16378e-05
-3.41404e-06
-1.45018e-07
7.42643e-07
7.24365e-07
4.83228e-07
2.66316e-07
1.26928e-07
5.22449e-08
1.76084e-08
3.81273e-09
-5.92623e-10
-1.39073e-09
-1.10859e-09
-6.78714e-10
-3.59257e-10
-1.70498e-10
-7.31323e-11
-2.79843e-11
-9.09228e-12
-2.08962e-12
6.64117e-14
4.88247e-13
4.09774e-13
2.55293e-13
1.37648e-13
6.73519e-14
3.04489e-14
1.27703e-14
4.93243e-15
1.71198e-15
4.9868e-16
9.2583e-17
-1.75214e-17
-3.26316e-17
-2.42839e-17
-1.43239e-17
-7.49264e-18
-3.61429e-18
-1.63487e-18
-6.9801e-19
-2.81235e-19
-1.06166e-19
-3.68625e-20
-1.12562e-20
-2.63089e-21
-1.34923e-22
3.67025e-22
3.29651e-22
2.07316e-22
1.12479e-22
5.58981e-23
2.60889e-23
1.15721e-23
4.90469e-24
1.98858e-24
7.69133e-25
2.81555e-25
9.59159e-26
2.92808e-26
7.20565e-27
7.84205e-28
-6.15684e-28
-6.40649e-28
-4.17005e-28
-2.29699e-28
-1.15409e-28
-5.45029e-29
-2.45492e-29
-1.0627e-29
-4.43804e-30
-1.78934e-30
-6.43189e-31
1.0002
0.998981
0.996949
1.00305
1.02392
1.04417
1.02383
0.923554
0.736846
0.499857
0.270751
0.0973224
-0.00287851
-0.0408489
-0.0411241
-0.0268119
-0.0122084
-0.00277179
0.00145114
0.00238119
0.00188425
0.0010967
0.0004886
0.000143425
-5.74515e-06
-4.71088e-05
-4.36005e-05
-2.8572e-05
-1.52955e-05
-6.84288e-06
-2.43515e-06
-5.21556e-07
1.28442e-07
2.47887e-07
1.96727e-07
1.20585e-07
6.33168e-08
2.92796e-08
1.18488e-08
3.98836e-09
9.0427e-10
-8.23148e-11
-2.73434e-10
-2.24991e-10
-1.40002e-10
-7.52772e-11
-3.64479e-11
-1.6092e-11
-6.44793e-12
-2.28234e-12
-6.56048e-13
-1.01826e-13
4.54494e-14
5.99569e-14
4.26213e-14
2.47272e-14
1.27838e-14
6.07942e-15
2.69218e-15
1.11191e-15
4.24725e-16
1.46405e-16
4.26213e-17
8.09264e-18
-1.2809e-18
-2.62216e-18
-1.97253e-18
-1.16943e-18
-6.1457e-19
-2.98162e-19
-1.35916e-19
-5.86521e-20
-2.39913e-20
-9.26054e-21
-3.33093e-21
-1.08451e-21
-2.96224e-22
-4.93976e-23
1.26126e-23
1.93952e-23
1.38142e-23
7.96174e-24
4.11539e-24
1.9806e-24
9.0288e-25
3.93166e-25
1.6413e-25
6.56876e-26
2.51132e-26
9.09267e-27
3.06224e-27
9.21487e-28
2.20838e-28
2.03959e-29
-2.16757e-29
-2.12538e-29
-1.36105e-29
-7.4398e-30
-3.71467e-30
-1.77561e-30
1.00012
0.999983
0.998056
0.997234
1.00626
1.02835
1.04547
1.01924
0.914888
0.72955
0.498991
0.27743
0.108361
0.00765392
-0.0342936
-0.0392834
-0.0283273
-0.0150825
-0.00548069
-0.000401772
0.00142407
0.00155877
0.00110185
0.000609252
0.00026723
8.19485e-05
2.78835e-06
-2.03236e-05
-2.02398e-05
-1.38003e-05
-7.71681e-06
-3.68341e-06
-1.4804e-06
-4.54513e-07
-5.53823e-08
5.96432e-08
6.81028e-08
4.81502e-08
2.79123e-08
1.41829e-08
6.43358e-09
2.58416e-09
8.78163e-10
2.12395e-10
-3.52436e-12
-4.93493e-11
-4.2957e-11
-2.73879e-11
-1.50091e-11
-7.41827e-12
-3.36289e-12
-1.39979e-12
-5.2742e-13
-1.72216e-13
-4.21855e-14
-1.72232e-15
6.98545e-15
6.36603e-15
4.08986e-15
2.25453e-15
1.12871e-15
5.24883e-16
2.28678e-16
9.3333e-17
3.53673e-17
1.21469e-17
3.54994e-18
6.96963e-19
-8.27372e-20
-2.01244e-19
-1.54104e-19
-9.20722e-20
-4.86753e-20
-2.37639e-20
-1.0916e-20
-4.75771e-21
-1.97245e-21
-7.75918e-22
-2.87139e-22
-9.80273e-23
-2.94844e-23
-6.77844e-24
-3.11254e-25
9.60598e-25
8.51609e-25
5.33025e-25
2.88817e-25
1.4374e-25
6.73676e-26
3.00983e-26
1.28964e-26
5.31121e-27
2.10062e-27
7.9446e-28
2.84632e-28
9.47674e-29
2.80872e-29
6.52962e-30
4.94076e-31
-1.16306e-30
1.00002
1.00022
0.999598
0.997383
0.997691
1.00916
1.03266
1.04747
1.01535
0.90559
0.72003
0.49538
0.282253
0.11924
0.0196766
-0.0252523
-0.0347989
-0.0276993
-0.0166095
-0.00759617
-0.00218184
0.000282652
0.000987573
0.000902683
0.000597335
0.000321323
0.000141326
4.61785e-05
5.27723e-06
-7.55097e-06
-8.63462e-06
-6.21702e-06
-3.63943e-06
-1.83712e-06
-8.05082e-07
-2.95113e-07
-7.71292e-08
-1.586e-10
1.81565e-08
1.66286e-08
1.09274e-08
6.09684e-09
3.0297e-09
1.35866e-09
5.4536e-10
1.88422e-10
4.89152e-11
2.69567e-12
-8.10776e-12
-7.736e-12
-5.10228e-12
-2.86074e-12
-1.44471e-12
-6.71389e-13
-2.88741e-13
-1.14185e-13
-4.05527e-14
-1.21022e-14
-2.33071e-15
4.02343e-16
8.08567e-16
6.15404e-16
3.69112e-16
1.95808e-16
9.55905e-17
4.36674e-17
1.87808e-17
7.596e-18
2.86276e-18
9.82276e-19
2.89237e-19
5.91615e-20
-4.41735e-21
-1.47944e-20
-1.16246e-20
-7.01903e-21
-3.7378e-21
-1.83741e-21
-8.50534e-22
-3.74216e-22
-1.57043e-22
-6.28032e-23
-2.37956e-23
-8.4278e-24
-2.70853e-24
-7.31443e-25
-1.20353e-25
3.12518e-26
4.73572e-26
3.35897e-26
1.93321e-26
1.00007e-26
4.82741e-27
2.21254e-27
9.71418e-28
4.10315e-28
1.6693e-28
6.53101e-29
2.44699e-29
7.50309e-30
0.999976
1.00009
1.00032
0.999207
0.996408
0.997839
1.01269
1.03863
1.0505
1.01004
0.892266
0.705295
0.487064
0.283932
0.128857
0.0321325
-0.0145913
-0.0281787
-0.0250407
-0.0166044
-0.00879077
-0.00355634
-0.000784701
0.000332657
0.00057963
0.000479853
0.000305315
0.000162228
7.23304e-05
2.52872e-05
4.72738e-06
-2.22331e-06
-3.36268e-06
-2.61469e-06
-1.61087e-06
-8.56269e-07
-4.0148e-07
-1.64366e-07
-5.54466e-08
-1.20078e-08
2.00601e-09
4.61837e-09
3.74e-09
2.33962e-09
1.27106e-09
6.22344e-10
2.77468e-10
1.11827e-10
3.94409e-11
1.09718e-11
1.29669e-12
-1.18022e-12
-1.31289e-12
-9.07277e-13
-5.22906e-13
-2.70235e-13
-1.2864e-13
-5.69508e-14
-2.3425e-14
-8.83991e-15
-2.95695e-15
-7.92407e-16
-9.69957e-17
7.27573e-17
8.14719e-17
5.56037e-17
3.17296e-17
1.63382e-17
7.81747e-18
3.52047e-18
1.49873e-18
6.02061e-19
2.26143e-19
7.76921e-20
2.31154e-20
4.94713e-21
-1.46424e-22
-1.04308e-21
-8.49112e-22
-5.19736e-22
-2.79185e-22
-1.38274e-22
-6.45089e-23
-2.86407e-23
-1.21548e-23
-4.93225e-24
-1.90659e-24
-6.95512e-25
-2.34694e-25
-6.99508e-26
-1.59876e-26
-7.55926e-28
2.2196e-27
1.96791e-27
1.23124e-27
6.67673e-28
3.33081e-28
1.56775e-28
7.04225e-29
2.93801e-29
0.999982
0.99993
1.00036
1.00052
0.998143
0.994586
0.998779
1.01903
1.04692
1.05225
0.999166
0.871016
0.682766
0.472523
0.281299
0.135975
0.04371
-0.00350123
-0.0203034
-0.0208466
-0.015221
-0.00899152
-0.00434961
-0.0015928
-0.000260363
0.000225986
0.000305831
0.000238915
0.000148658
7.88002e-05
3.58225e-05
1.33473e-05
3.30645e-06
-3.33723e-07
-1.17076e-06
-1.02334e-06
-6.70264e-07
-3.75083e-07
-1.86263e-07
-8.25423e-08
-3.19514e-08
-9.98457e-09
-1.71754e-09
7.29843e-10
1.05462e-09
7.9063e-10
4.77997e-10
2.54929e-10
1.23658e-10
5.50368e-11
2.23428e-11
8.05948e-12
2.38901e-12
4.09083e-13
-1.40517e-13
-2.0879e-13
-1.54045e-13
-9.18437e-14
-4.86837e-14
-2.37377e-14
-1.07927e-14
-4.58979e-15
-1.81509e-15
-6.55123e-16
-2.0566e-16
-4.79787e-17
-9.07133e-19
8.58238e-18
7.52307e-18
4.76971e-18
2.62102e-18
1.31813e-18
6.20551e-19
2.76254e-19
1.16667e-19
4.66351e-20
1.74883e-20
6.02643e-21
1.81554e-21
4.07241e-22
5.72098e-24
-7.04851e-23
-6.01807e-23
-3.74719e-23
-2.03353e-23
-1.01547e-23
-4.77559e-24
-2.13905e-24
-9.17335e-25
-3.7716e-25
-1.48345e-25
-5.54545e-26
-1.94311e-26
-6.19533e-27
-1.66619e-27
-2.76702e-28
6.68666e-29
1.04175e-28
7.37837e-29
4.59596e-29
1
0.99986
1.00015
1.00094
0.999997
0.995651
0.993088
1.00315
1.02932
1.05515
1.04787
0.977992
0.838822
0.651025
0.451039
0.273616
0.139583
0.0532071
0.0068278
-0.0121658
-0.0158098
-0.0128441
-0.00833791
-0.00454792
-0.00205926
-0.000698286
-8.31534e-05
0.000124568
0.000149231
0.000112765
6.94092e-05
3.69452e-05
1.71698e-05
6.77066e-06
2.01085e-06
1.75491e-07
-3.44072e-07
-3.69025e-07
-2.61842e-07
-1.5489e-07
-8.11032e-08
-3.82794e-08
-1.62267e-08
-5.9954e-09
-1.74696e-09
-2.24451e-10
1.91095e-10
2.23327e-10
1.59095e-10
9.39238e-11
4.94689e-11
2.38693e-11
1.06369e-11
4.35859e-12
1.60867e-12
5.04549e-13
1.08475e-13
-9.43261e-15
-3.06812e-14
-2.49259e-14
-1.55122e-14
-8.46249e-15
-4.2297e-15
-1.97241e-15
-8.63826e-16
-3.54866e-16
-1.35395e-16
-4.67751e-17
-1.36908e-17
-2.6278e-18
4.06988e-19
8.56239e-19
6.52866e-19
3.92463e-19
2.09408e-19
1.03328e-19
4.80074e-20
2.1174e-20
8.88644e-21
3.54004e-21
1.32723e-21
4.59404e-22
1.40346e-22
3.29846e-23
1.80746e-24
-4.55059e-24
-4.14376e-24
-2.63546e-24
-1.44738e-24
-7.29317e-25
-3.45845e-25
-1.5626e-25
-6.76792e-26
-2.81617e-26
-1.12475e-26
-4.29247e-27
-1.55018e-27
-5.19284e-28
-1.54857e-28
-1.96423e-29
1.00001
0.999859
0.999962
1.00083
1.00098
0.997734
0.992783
0.994941
1.01271
1.0413
1.05783
1.03172
0.942971
0.794417
0.610047
0.422787
0.260739
0.139137
0.0597952
0.0154606
-0.00464136
-0.010629
-0.0099472
-0.00709248
-0.00425585
-0.00219353
-0.000947628
-0.000304963
-2.81009e-05
6.04546e-05
6.83836e-05
5.08398e-05
3.12136e-05
1.67575e-05
7.96815e-06
3.30108e-06
1.11143e-06
2.20963e-07
-6.89722e-08
-1.19692e-07
-9.549e-08
-6.03164e-08
-3.33094e-08
-1.661e-08
-7.53895e-09
-3.08506e-09
-1.09707e-09
-3.00522e-10
-2.64516e-11
4.30029e-11
4.46455e-11
3.07327e-11
1.78503e-11
9.32673e-12
4.49042e-12
2.00793e-12
8.31507e-13
3.13853e-13
1.03423e-13
2.59478e-14
1.46701e-15
-4.03198e-15
-3.82329e-15
-2.51764e-15
-1.42063e-15
-7.29091e-16
-3.48575e-16
-1.56821e-16
-6.65431e-17
-2.65121e-17
-9.78187e-18
-3.23322e-18
-8.73454e-19
-1.22644e-19
6.33772e-20
7.76178e-20
5.40335e-20
3.12012e-20
1.62618e-20
7.90059e-21
3.63132e-21
1.58968e-21
6.63986e-22
2.63938e-22
9.90476e-23
3.44747e-23
1.06897e-23
2.62806e-24
2.416e-25
-2.78706e-25
-2.7732e-25
-1.81064e-25
-1.00833e-25
-5.13159e-26
-2.45461e-26
-1.11869e-26
-4.89144e-27
-2.05813e-27
-8.33631e-28
-2.92528e-28
1.00002
0.999885
0.999879
1.00059
1.00119
0.999253
0.994529
0.992732
1.00248
1.02556
1.04911
1.04841
0.999497
0.892799
0.73844
0.561048
0.38874
0.243138
0.134637
0.0631292
0.0218459
0.00165185
-0.005871
-0.00697178
-0.00554884
-0.00363628
-0.00206472
-0.00102241
-0.000428247
-0.000134184
-1.14858e-05
2.6631e-05
2.96867e-05
2.20009e-05
1.35606e-05
7.36598e-06
3.58336e-06
1.54935e-06
5.71536e-07
1.55284e-07
5.49182e-09
-3.2796e-08
-3.20637e-08
-2.2077e-08
-1.29275e-08
-6.79306e-09
-3.26397e-09
-1.43699e-09
-5.71922e-10
-1.97289e-10
-5.13589e-11
-2.76149e-12
8.80072e-12
8.51835e-12
5.73309e-12
3.2949e-12
1.7139e-12
8.2534e-13
3.70908e-13
1.55335e-13
5.99012e-14
2.06044e-14
5.77782e-15
8.4924e-16
-4.32874e-16
-5.49711e-16
-3.9164e-16
-2.30297e-16
-1.21709e-16
-5.96881e-17
-2.75474e-17
-1.2029e-17
-4.96624e-18
-1.92462e-18
-6.87738e-19
-2.1718e-19
-5.33476e-20
-3.90076e-21
6.871e-21
6.59539e-21
4.30556e-21
2.4095e-21
1.23216e-21
5.91044e-22
2.69268e-22
1.17173e-22
4.87677e-23
1.93638e-23
7.28015e-24
2.55011e-24
8.02958e-25
2.05996e-25
2.58001e-26
-1.59607e-26
-1.80319e-26
-1.21628e-26
-6.88422e-27
-3.54254e-27
-1.7077e-27
-7.69523e-28
1.00002
0.999908
0.99987
1.00041
1.00105
0.999932
0.996298
0.993525
0.998273
1.01436
1.03579
1.04543
1.0217
0.949571
0.828543
0.673064
0.506128
0.350444
0.221775
0.126566
0.0633196
0.0258252
0.00639631
-0.00190457
-0.00425381
-0.0039641
-0.00285764
-0.00176637
-0.000964203
-0.00046453
-0.000191217
-5.97443e-05
-5.8861e-06
1.07591e-05
1.22665e-05
9.16652e-06
5.70306e-06
3.14201e-06
1.56318e-06
7.01513e-07
2.77368e-07
8.95322e-08
1.66755e-08
-5.99197e-09
-9.60055e-09
-7.52726e-09
-4.73392e-09
-2.62739e-09
-1.32997e-09
-6.20955e-10
-2.66971e-10
-1.04006e-10
-3.50709e-11
-8.79565e-12
-2.57338e-13
1.68005e-12
1.56232e-12
1.03723e-12
5.9254e-13
3.07723e-13
1.48497e-13
6.71467e-14
2.84477e-14
1.11939e-14
3.9965e-15
1.21843e-15
2.54203e-16
-2.43348e-17
-7.23542e-17
-5.80705e-17
-3.60016e-17
-1.96811e-17
-9.91576e-18
-4.69279e-18
-2.10395e-18
-8.9563e-19
-3.60923e-19
-1.36355e-19
-4.72365e-20
-1.42185e-20
-3.10626e-21
6.12192e-23
6.42004e-22
5.34241e-22
3.32494e-22
1.81484e-22
9.13703e-23
4.33697e-23
1.96157e-23
8.49544e-24
3.52684e-24
1.40003e-24
5.27733e-25
1.86145e-25
5.95257e-26
1.58898e-26
2.4605e-27
-8.28738e-28
-1.1289e-27
-8.96976e-28
1.00002
0.999921
0.999891
1.00032
1.00083
1.00005
0.997386
0.995081
0.997708
1.00856
1.0249
1.03566
1.02422
0.975466
0.883114
0.75312
0.601413
0.447839
0.309743
0.19791
0.115735
0.0608188
0.0275601
0.00954356
0.00110291
-0.00199781
-0.00252374
-0.00205972
-0.00138896
-0.000823351
-0.000437019
-0.00020686
-8.4607e-05
-2.68739e-05
-3.39291e-06
3.97257e-06
4.8319e-06
3.68298e-06
2.32491e-06
1.30196e-06
6.6218e-07
3.07096e-07
1.28243e-07
4.62468e-08
1.25285e-08
6.70696e-10
-2.3472e-09
-2.34267e-09
-1.62559e-09
-9.60962e-10
-5.12554e-10
-2.52097e-10
-1.15105e-10
-4.8594e-11
-1.86351e-11
-6.18835e-12
-1.51902e-12
-2.63218e-14
3.03102e-13
2.76759e-13
1.82564e-13
1.04065e-13
5.40848e-14
2.61945e-14
1.19279e-14
5.11255e-15
2.05009e-15
7.56053e-16
2.45963e-16
6.22469e-17
4.84934e-18
-8.23319e-18
-8.11989e-18
-5.41005e-18
-3.08078e-18
-1.59901e-18
-7.76448e-19
-3.56998e-19
-1.56196e-19
-6.50363e-20
-2.56459e-20
-9.46196e-21
-3.17961e-21
-9.09421e-22
-1.70839e-22
2.68376e-23
5.50567e-23
4.16805e-23
2.50045e-23
1.33748e-23
6.64753e-24
3.1279e-24
1.40638e-24
6.06838e-25
2.515e-25
9.98825e-26
3.77702e-26
1.34206e-26
4.37366e-27
8.37661e-28
1.00001
0.999926
0.999913
1.00031
1.00068
0.999925
0.997835
0.996335
0.998614
1.00661
1.01829
1.0262
1.01846
0.982572
0.910694
0.803494
0.670511
0.526951
0.388791
0.268506
0.172887
0.10311
0.0562751
0.0274223
0.0112427
0.00314875
-0.000286564
-0.00133432
-0.00133872
-0.00100409
-0.000645803
-0.000371365
-0.000193301
-9.05809e-05
-3.71246e-05
-1.21478e-05
-1.97379e-06
1.31148e-06
1.81195e-06
1.42754e-06
9.19311e-07
5.24479e-07
2.72661e-07
1.30244e-07
5.6868e-08
2.21731e-08
7.21651e-09
1.49203e-09
-3.06894e-10
-6.33612e-10
-5.15982e-10
-3.30944e-10
-1.87033e-10
-9.67733e-11
-4.6544e-11
-2.08874e-11
-8.69857e-12
-3.29997e-12
-1.08684e-12
-2.65432e-13
-5.06075e-15
5.2031e-14
4.75041e-14
3.13328e-14
1.78806e-14
9.31919e-15
4.53577e-15
2.08132e-15
9.02471e-16
3.68314e-16
1.39741e-16
4.78766e-17
1.37171e-17
2.37624e-18
-6.6458e-19
-1.04789e-18
-7.76785e-19
-4.65913e-19
-2.50245e-19
-1.24878e-19
-5.88716e-20
-2.64243e-20
-1.13217e-20
-4.62313e-21
-1.78754e-21
-6.44993e-22
-2.10326e-22
-5.69356e-23
-8.70545e-24
3.32524e-24
4.45581e-24
3.15374e-24
1.83787e-24
9.66913e-25
4.75457e-25
2.22108e-25
9.93864e-26
4.27641e-26
1.77156e-26
6.36409e-27
1.00001
0.999925
0.999928
1.00032
1.00061
0.999771
0.997908
0.997045
0.999711
1.00662
1.01526
1.01966
1.01121
0.980639
0.92105
0.830901
0.715329
0.58499
0.452987
0.331341
0.228415
0.147965
0.0896515
0.0503958
0.0258826
0.0117584
0.00434174
0.000890064
-0.000434366
-0.000747035
-0.000658927
-0.000466342
-0.000289778
-0.000163002
-8.37423e-05
-3.90738e-05
-1.61455e-05
-5.48269e-06
-1.1049e-06
3.62264e-07
6.4346e-07
5.33272e-07
3.52607e-07
2.05484e-07
1.09221e-07
5.36112e-08
2.4303e-08
1.00488e-08
3.65705e-09
1.05223e-09
1.25911e-10
-1.2699e-10
-1.46489e-10
-1.06154e-10
-6.44351e-11
-3.5201e-11
-1.77884e-11
-8.40729e-12
-3.72342e-12
-1.53553e-12
-5.78797e-13
-1.90271e-13
-4.69412e-14
-1.56552e-15
8.52089e-15
7.91621e-15
5.25203e-15
3.00989e-15
1.57608e-15
7.71753e-16
3.57053e-16
1.566e-16
6.49704e-17
2.52751e-17
9.03285e-18
2.8231e-18
6.59067e-19
1.30473e-20
-1.18758e-19
-1.05371e-19
-6.78139e-20
-3.79611e-20
-1.95256e-20
-9.44568e-21
-4.3458e-21
-1.91113e-21
-8.04055e-22
-3.22687e-22
-1.22548e-22
-4.32994e-23
-1.37045e-23
-3.49466e-24
-3.93265e-25
3.21063e-25
3.45484e-25
2.32566e-25
1.32409e-25
6.87168e-26
3.34514e-26
1.51013e-26
1.00001
0.999924
0.999935
1.00033
1.00058
0.999662
0.997834
0.997331
1.0005
1.0073
1.0144
1.01608
1.00546
0.975876
0.922305
0.843087
0.741088
0.623556
0.500515
0.382322
0.27739
0.19082
0.124183
0.0762007
0.0438425
0.0234203
0.0113985
0.00484928
0.00160087
0.000186615
-0.000301411
-0.000377821
-0.00030694
-0.00020838
-0.00012624
-6.98977e-05
-3.56183e-05
-1.66196e-05
-6.95156e-06
-2.45637e-06
-5.88227e-07
6.36892e-08
2.13883e-07
1.91474e-07
1.3109e-07
7.82998e-08
4.25876e-08
2.14486e-08
1.00456e-08
4.35116e-09
1.70949e-09
5.78742e-10
1.41887e-10
-1.68185e-12
-3.39915e-11
-3.09482e-11
-2.07782e-11
-1.21107e-11
-6.44506e-12
-3.19718e-12
-1.49069e-12
-6.53716e-13
-2.67841e-13
-1.0069e-13
-3.32211e-14
-8.38317e-15
-4.80367e-16
1.3299e-15
1.28197e-15
8.60733e-16
4.96874e-16
2.61862e-16
1.29137e-16
6.02662e-17
2.67321e-17
1.12627e-17
4.48009e-18
1.65833e-18
5.52844e-19
1.52027e-19
2.2837e-20
-1.00974e-20
-1.32053e-20
-9.43384e-21
-5.56738e-21
-2.96594e-21
-1.47514e-21
-6.95775e-22
-3.1362e-22
-1.35512e-22
-5.61078e-23
-2.21704e-23
-8.28231e-24
-2.86878e-24
-8.8148e-25
-2.10586e-25
-1.37892e-26
2.75894e-26
2.57478e-26
1.82038e-26
1.00001
0.999923
0.999937
1.00034
1.00058
0.999605
0.997739
0.997385
1.00093
1.00797
1.01454
1.01457
1.00187
0.971386
0.919905
0.846654
0.753829
0.64667
0.532714
0.420336
0.317068
0.228294
0.156674
0.10231
0.063416
0.0371667
0.0204624
0.0104609
0.00485496
0.00194254
0.000568239
5.82847e-06
-0.000167458
-0.000178301
-0.000136931
-9.0177e-05
-5.36202e-05
-2.93636e-05
-1.48974e-05
-6.97294e-06
-2.95939e-06
-1.08764e-06
-2.9823e-07
-1.14259e-08
6.48973e-08
6.573e-08
4.71567e-08
2.90044e-08
1.61682e-08
8.34949e-09
4.02693e-09
1.81256e-09
7.5372e-10
2.81887e-10
8.82267e-11
1.72145e-11
-4.15543e-12
-7.71333e-12
-6.15068e-12
-3.91318e-12
-2.21151e-12
-1.15303e-12
-5.63718e-13
-2.60103e-13
-1.13258e-13
-4.62301e-14
-1.73878e-14
-5.78374e-15
-1.50629e-15
-1.31489e-16
1.96744e-16
2.01744e-16
1.37999e-16
8.04952e-17
4.27722e-17
2.12645e-17
1.00148e-17
4.4921e-18
1.92024e-18
7.79245e-19
2.97152e-19
1.04139e-19
3.18079e-20
7.10851e-21
-7.54835e-23
-1.45216e-21
-1.23842e-21
-7.85728e-22
-4.36907e-22
-2.24164e-22
-1.08519e-22
-5.01168e-23
-2.21981e-23
-9.44576e-24
-3.85595e-24
-1.50249e-24
-5.52874e-25
-1.87929e-25
-5.63927e-26
-6.459e-27
1.00001
0.999922
0.999937
1.00035
1.00059
0.999584
0.99767
0.997349
1.00111
1.00842
1.01495
1.0142
1.00004
0.968218
0.916832
0.846215
0.7588
0.658973
0.552654
0.446496
0.346816
0.258595
0.184853
0.126533
0.0828261
0.051752
0.0307814
0.0173514
0.00920126
0.00452976
0.00201657
0.000762585
0.000196033
-2.29804e-05
-8.28037e-05
-7.98824e-05
-5.89583e-05
-3.79693e-05
-2.22731e-05
-1.21083e-05
-6.13358e-06
-2.88617e-06
-1.24432e-06
-4.74573e-07
-1.44697e-07
-2.0186e-08
1.68983e-08
2.13607e-08
1.63612e-08
1.04323e-08
5.97546e-09
3.16478e-09
1.56858e-09
7.29791e-10
3.17346e-10
1.27137e-10
4.53022e-11
1.29888e-11
1.74203e-12
-1.31521e-12
-1.59568e-12
-1.16834e-12
-7.14393e-13
-3.94184e-13
-2.02222e-13
-9.77469e-14
-4.47475e-14
-1.93917e-14
-7.9037e-15
-2.98182e-15
-1.0034e-15
-2.71172e-16
-3.25235e-17
2.72416e-17
3.08164e-17
2.16468e-17
1.28026e-17
6.87162e-18
3.44761e-18
1.63935e-18
7.43525e-19
3.22234e-19
1.33154e-19
5.20937e-20
1.90019e-20
6.24753e-21
1.69068e-21
2.43153e-22
-1.18778e-22
-1.49546e-22
-1.05828e-22
-6.22066e-23
-3.3106e-23
-1.64884e-23
-7.80636e-24
-3.54137e-24
-1.54503e-24
-6.48671e-25
-2.61844e-25
-8.83159e-26
1.00001
0.999922
0.999936
1.00035
1.0006
0.99958
0.997632
0.997299
1.00115
1.00867
1.01532
1.01431
0.999314
0.966372
0.91434
0.844475
0.759792
0.664552
0.563848
0.46312
0.367548
0.281409
0.207588
0.147379
0.100602
0.0659545
0.041471
0.0249598
0.0143353
0.00781836
0.00401617
0.00191471
0.000822459
0.000295785
6.65707e-05
-1.76237e-05
-3.79323e-05
-3.43316e-05
-2.46312e-05
-1.56068e-05
-9.06816e-06
-4.90803e-06
-2.48775e-06
-1.17854e-06
-5.16307e-07
-2.03709e-07
-6.75347e-08
-1.43031e-08
3.01946e-09
6.44656e-09
5.44434e-09
3.63547e-09
2.14834e-09
1.16831e-09
5.94507e-10
2.84917e-10
1.28567e-10
5.42315e-11
2.09914e-11
7.12896e-12
1.84934e-12
1.06059e-13
-3.13819e-13
-3.10419e-13
-2.14203e-13
-1.27087e-13
-6.88179e-14
-3.48567e-14
-1.67004e-14
-7.60145e-15
-3.28471e-15
-1.33934e-15
-5.07876e-16
-1.73315e-16
-4.87234e-17
-7.43704e-18
3.43277e-18
4.55701e-18
3.32073e-18
1.99931e-18
1.08617e-18
5.50566e-19
2.64457e-19
1.21282e-19
5.32574e-20
2.23755e-20
8.9523e-21
3.37476e-21
1.17217e-21
3.55926e-22
7.96196e-23
-2.86547e-25
-1.56309e-23
-1.33959e-23
-8.51091e-24
-4.74015e-24
-2.43861e-24
-1.18559e-24
-5.50781e-25