/*--------------------------------*- C++ -*----------------------------------*\
  =========                 |
  \\      /  F ield         | OpenFOAM: The Open Source CFD Toolbox
   \\    /   O peration     | Website:  https://openfoam.org
    \\  /    A nd           | Version:  7
     \\/     M anipulation  |
\*---------------------------------------------------------------------------*/
FoamFile
{
    version     2.0;
    format      ascii;
    class       surfaceScalarField;
    location    "0.38";
    object      phi;
}
// * * * * * * * * * * * * * * * * * * * * * * * * * * * * * * * * * * * * * //

dimensions      [0 3 -1 0 0 0 0];

internalField   nonuniform List<scalar> 
69558
(
0.001
0.00035336
0.00064664
0.00054692
0.00045308
0.00090028
0.0005156
0.0004844
0.00096868
0.00051524
0.00048476
0.00099964
0.00051602
0.00048398
0.00100078
0.00049509
0.00050491
0.00097907
0.00048394
0.00051606
0.00098885
0.00052541
0.00047459
0.00104147
0.00051391
0.00048609
0.0009885
0.0004924
0.0005076
0.00097849
0.0005035
0.0004965
0.0010111
0.0005158
0.0004842
0.0010123
0.0005057
0.0004943
0.0009899
0.0004951
0.0005049
0.0009894
0.0004806
0.0005194
0.0009855
0.0004727
0.0005273
0.0009921
0.0004934
0.0005066
0.0010207
0.0005275
0.0004725
0.0010341
0.000516
0.000484
0.0009885
0.0004996
0.0005004
0.0009836
0.0005074
0.0004926
0.0010078
0.0004929
0.0005071
0.0009855
0.0005004
0.0004996
0.0010075
0.0005076
0.0004924
0.0010072
0.0004922
0.0005078
0.0009846
0.0004961
0.0005039
0.0010039
0.0005008
0.0004992
0.0010047
0.000504
0.000496
0.0010032
0.0004875
0.0005125
0.0009835
0.0005006
0.0004994
0.0010131
0.0005117
0.0004883
0.0010111
0.0004912
0.0005088
0.0009795
0.0004811
0.0005189
0.0009899
0.0005233
0.0004767
0.0010422
0.0005054
0.0004946
0.0009821
0.0004755
0.0005245
0.0009701
0.0005216
0.0004784
0.0010461
0.0005136
0.0004864
0.000992
0.0004985
0.0005015
0.0009849
0.0005069
0.0004931
0.0010084
0.0004927
0.0005073
0.0009858
0.0004998
0.0005002
0.0010071
0.0005074
0.0004926
0.0010076
0.0004927
0.0005073
0.0009853
0.0004974
0.0005026
0.0010047
0.000503
0.000497
0.0010056
0.0005077
0.0004923
0.0010047
0.0004921
0.0005079
0.0009844
0.0004989
0.0005011
0.0010068
0.0005052
0.0004948
0.0010063
0.0004866
0.0005134
0.0009814
0.0004769
0.0005231
0.0009903
0.0005191
0.0004809
0.0010422
0.0005086
0.0004914
0.0009895
0.0004903
0.0005097
0.0009817
0.000504
0.000496
0.0010137
0.000517
0.000483
0.001013
0.0005075
0.0004925
0.0009905
0.0004988
0.0005012
0.0009913
0.0004893
0.0005107
0.0009905
0.0004983
0.0005017
0.001009
0.0005072
0.0004928
0.0010089
0.0004944
0.0005056
0.0009872
0.0005045
0.0004955
0.0010101
0.0004952
0.0005048
0.0009907
0.0005058
0.0004942
0.0010106
0.0004924
0.0005076
0.0009866
0.0005002
0.0004998
0.0010078
0.0005076
0.0004924
0.0010074
0.0004922
0.0005078
0.0009846
0.0004961
0.0005039
0.0010039
0.0005006
0.0004994
0.0010045
0.0005035
0.0004965
0.0010029
0.0004864
0.0005136
0.0009829
0.0004982
0.0005018
0.0010118
0.000507
0.000493
0.0010088
0.0004815
0.0005185
0.0009745
0.0004851
0.0005149
0.0010036
0.0005216
0.0004784
0.0010365
0.0005067
0.0004933
0.0009851
0.0004761
0.0005239
0.0009694
0.000522
0.000478
0.0010459
0.0005137
0.0004863
0.0009917
0.0004985
0.0005015
0.0009848
0.0005068
0.0004932
0.0010083
0.0004923
0.0005077
0.0009855
0.0004993
0.0005007
0.001007
0.0005064
0.0004936
0.0010071
0.0004907
0.0005093
0.0009843
0.0004933
0.0005067
0.0010026
0.0004945
0.0005055
0.0010012
0.0004905
0.0005095
0.000996
0.0004612
0.0005388
0.0009707
0.0004449
0.0005551
0.0009837
0.0004179
0.0005821
0.000973
0.0003643
0.0006357
0.0009464
0.0003109
0.0006891
0.0009466
0.0002592
0.0007408
0.0009483
0.0008618
0.0001382
0.0008618
0.000879
-0.0007726
0.0007726
8.92e-05
-0.0007313
0.0007313
4.13e-05
-0.0007232
0.0007232
8.1e-06
-0.0006989
0.0006989
2.43e-05
-0.0007251
0.0007251
-2.62e-05
-0.0007498
0.0007498
-2.47e-05
-0.0007294
0.0007294
2.04e-05
-0.0007176
0.0007176
1.18e-05
-0.000723
0.000723
-5.4e-06
-0.0007396
0.0007396
-1.66e-05
-0.0007329
0.0007329
6.7e-06
-0.0007163
0.0007163
1.66e-05
-0.0007194
0.0007194
-3.1e-06
-0.0007253
0.0007253
-5.9e-06
-0.0007137
0.0007137
1.16e-05
-0.0007074
0.0007074
6.3e-06
-0.0007149
0.0007149
-7.5e-06
-0.0007364
0.0007364
-2.15e-05
-0.0007514
0.0007514
-1.5e-05
-0.0007269
0.0007269
2.45e-05
-0.0007149
0.0007149
1.2e-05
-0.0007226
0.0007226
-7.7e-06
-0.0007402
0.0007402
-1.76e-05
-0.0007349
0.0007349
5.3e-06
-0.0007204
0.0007204
1.45e-05
-0.0007269
0.0007269
-6.5e-06
-0.0007299
0.0007299
-3e-06
-0.0007169
0.0007169
1.3e-05
-0.000728
0.000728
-1.11e-05
-0.0007301
0.0007301
-2.1e-06
-0.0007279
0.0007279
2.2e-06
-0.0007264
0.0007264
1.5e-06
-0.0007199
0.0007199
6.5e-06
-0.0007132
0.0007132
6.7e-06
-0.000722
0.000722
-8.8e-06
-0.0007398
0.0007398
-1.78e-05
-0.0007348
0.0007348
5e-06
-0.0007212
0.0007212
1.36e-05
-0.0007271
0.0007271
-5.9e-06
-0.0007338
0.0007338
-6.7e-06
-0.000737
0.000737
-3.2e-06
-0.0007254
0.0007254
1.16e-05
-0.0007267
0.0007267
-1.3e-06
-0.0007143
0.0007143
1.24e-05
-0.0007285
0.0007285
-1.42e-05
-0.0007384
0.0007384
-9.9e-06
-0.0007176
0.0007176
2.08e-05
-0.0007127
0.0007127
4.9e-06
-0.0007376
0.0007376
-2.49e-05
-0.0007349
0.0007349
2.7e-06
-0.0007224
0.0007224
1.25e-05
-0.0007276
0.0007276
-5.2e-06
-0.0007333
0.0007333
-5.7e-06
-0.0007353
0.0007353
-2e-06
-0.0007142
0.0007142
2.11e-05
-0.000735
0.000735
-2.08e-05
-0.0007458
0.0007458
-1.08e-05
-0.0007291
0.0007291
1.67e-05
-0.0007305
0.0007305
-1.4e-06
-0.0007457
0.0007457
-1.52e-05
-0.0007435
0.0007435
2.2e-06
-0.0007321
0.0007321
1.14e-05
-0.0007271
0.0007271
5e-06
-0.0007205
0.0007205
6.6e-06
-0.0007228
0.0007228
-2.3e-06
-0.0007141
0.0007141
8.7e-06
-0.0007218
0.0007218
-7.7e-06
-0.0007394
0.0007394
-1.76e-05
-0.000734
0.000734
5.4e-06
-0.0007194
0.0007194
1.46e-05
-0.0007258
0.0007258
-6.4e-06
-0.0007302
0.0007302
-4.4e-06
-0.0007344
0.0007344
-4.2e-06
-0.0007142
0.0007142
2.02e-05
-0.0007344
0.0007344
-2.02e-05
-0.000728
0.000728
6.4e-06
-0.0007271
0.0007271
9e-07
-0.000737
0.000737
-9.9e-06
-0.0007172
0.0007172
1.98e-05
-0.0007134
0.0007134
3.8e-06
-0.0007379
0.0007379
-2.45e-05
-0.0007336
0.0007336
4.3e-06
-0.0007208
0.0007208
1.28e-05
-0.0007268
0.0007268
-6e-06
-0.0007331
0.0007331
-6.3e-06
-0.000735
0.000735
-1.9e-06
-0.0007126
0.0007126
2.24e-05
-0.0007359
0.0007359
-2.33e-05
-0.0007229
0.0007229
1.3e-05
-0.0007276
0.0007276
-4.7e-06
-0.0007257
0.0007257
1.9e-06
-0.0007147
0.0007147
1.1e-05
-0.0007084
0.0007084
6.3e-06
-0.0007147
0.0007147
-6.3e-06
-0.0007362
0.0007362
-2.15e-05
-0.0007518
0.0007518
-1.56e-05
-0.0007273
0.0007273
2.45e-05
-0.0007151
0.0007151
1.22e-05
-0.0007231
0.0007231
-8e-06
-0.0007403
0.0007403
-1.72e-05
-0.000735
0.000735
5.3e-06
-0.0007201
0.0007201
1.49e-05
-0.0007259
0.0007259
-5.8e-06
-0.0007272
0.0007272
-1.3e-06
-0.0007093
0.0007093
1.79e-05
-0.0007052
0.0007052
4.1e-06
-0.0007169
0.0007169
-1.17e-05
-0.0007253
0.0007253
-8.4e-06
-0.0007194
0.0007194
5.9e-06
-0.0007198
0.0007198
-4e-07
-0.0007132
0.0007132
6.6e-06
-0.0007219
0.0007219
-8.7e-06
-0.0007397
0.0007397
-1.78e-05
-0.0007347
0.0007347
5e-06
-0.0007212
0.0007212
1.35e-05
-0.000727
0.000727
-5.8e-06
-0.0007338
0.0007338
-6.8e-06
-0.0007372
0.0007372
-3.4e-06
-0.0007264
0.0007264
1.08e-05
-0.0007305
0.0007305
-4.1e-06
-0.000736
0.000736
-5.5e-06
-0.0007282
0.0007282
7.8e-06
-0.0007381
0.0007381
-9.9e-06
-0.0007174
0.0007174
2.07e-05
-0.0007126
0.0007126
4.8e-06
-0.0007374
0.0007374
-2.48e-05
-0.0007345
0.0007345
2.9e-06
-0.000722
0.000722
1.25e-05
-0.0007275
0.0007275
-5.5e-06
-0.0007336
0.0007336
-6.1e-06
-0.0007367
0.0007367
-3.1e-06
-0.000726
0.000726
1.07e-05
-0.0007297
0.0007297
-3.7e-06
-0.0007162
0.0007162
1.35e-05
-0.0007195
0.0007195
-3.3e-06
-0.0007237
0.0007237
-4.2e-06
-0.0007141
0.0007141
9.6e-06
-0.0007172
0.0007172
-3.1e-06
-0.0007237
0.0007237
-6.5e-06
-0.0007252
0.0007252
-1.5e-06
-0.0007393
0.0007393
-1.41e-05
-0.0007239
0.0007239
1.54e-05
-0.0007144
0.0007144
9.5e-06
-0.0007227
0.0007227
-8.3e-06
-0.0007402
0.0007402
-1.75e-05
-0.000735
0.000735
5.2e-06
-0.0007207
0.0007207
1.43e-05
-0.000728
0.000728
-7.3e-06
-0.0007341
0.0007341
-6.1e-06
-0.0007413
0.0007413
-7.2e-06
-0.0007298
0.0007298
1.15e-05
-0.0007262
0.0007262
3.6e-06
-0.000723
0.000723
3.2e-06
-0.0007198
0.0007198
3.2e-06
-0.0007252
0.0007252
-5.4e-06
-0.0007129
0.0007129
1.23e-05
-0.0007218
0.0007218
-8.9e-06
-0.0007396
0.0007396
-1.78e-05
-0.0007346
0.0007346
5e-06
-0.0007213
0.0007213
1.33e-05
-0.0007271
0.0007271
-5.8e-06
-0.0007336
0.0007336
-6.5e-06
-0.0007357
0.0007357
-2.1e-06
-0.0007135
0.0007135
2.22e-05
-0.0007315
0.0007315
-1.8e-05
-0.0007168
0.0007168
1.47e-05
-0.0007218
0.0007218
-5e-06
-0.0007375
0.0007375
-1.57e-05
-0.0007166
0.0007166
2.09e-05
-0.0007122
0.0007122
4.4e-06
-0.0007375
0.0007375
-2.53e-05
-0.000735
0.000735
2.5e-06
-0.0007223
0.0007223
1.27e-05
-0.0007272
0.0007272
-4.9e-06
-0.0007327
0.0007327
-5.5e-06
-0.0007342
0.0007342
-1.5e-06
-0.0007116
0.0007116
2.26e-05
-0.0007339
0.0007339
-2.23e-05
-0.0007195
0.0007195
1.44e-05
-0.0007252
0.0007252
-5.7e-06
-0.0007273
0.0007273
-2.1e-06
-0.0007095
0.0007095
1.78e-05
-0.0007054
0.0007054
4.1e-06
-0.0007178
0.0007178
-1.24e-05
-0.0007262
0.0007262
-8.4e-06
-0.0007205
0.0007205
5.7e-06
-0.0007206
0.0007206
-1e-07
-0.0007132
0.0007132
7.4e-06
-0.0007216
0.0007216
-8.4e-06
-0.0007399
0.0007399
-1.83e-05
-0.0007338
0.0007338
6.1e-06
-0.0007125
0.0007125
2.13e-05
-0.0007093
0.0007093
3.2e-06
-0.0007054
0.0007054
3.9e-06
-0.0007045
0.0007045
9e-07
-0.0007189
0.0007189
-1.44e-05
-0.0007606
0.0007606
-4.17e-05
-0.0007601
0.0007601
5e-07
-0.001
-0.001
0
-0.0004679
-0.0005321
-0.0004682
-0.0005318
-0.0004979
-0.0005021
-0.0005134
-0.0004866
-0.0004956
-0.0005044
-0.0005031
-0.0004969
-0.0004898
-0.0005102
-0.0005086
-0.0004914
-0.000497
-0.000503
-0.0005003
-0.0004997
-0.0005021
-0.0004979
-0.0004878
-0.0005122
-0.0004943
-0.0005057
-0.0004902
-0.0005098
-0.0004919
-0.0005081
-0.0005061
-0.0004939
-0.0005077
-0.0004923
-0.0004796
-0.0005204
-0.0005061
-0.0004939
-0.0004897
-0.0005103
-0.0004987
-0.0005013
-0.0005205
-0.0004795
-0.0004926
-0.0005074
-0.0004976
-0.0005024
-0.0004924
-0.0005076
-0.0004848
-0.0005152
-0.0005095
-0.0004905
-0.0005246
-0.0004754
-0.0005888
-0.0004112
-0.0014679
-0.0008869
0.0008869
0
0.0008481
-0.0008481
0
0.0008741
-0.0008741
0
0.0008768
-0.0008768
0
0.0008546
-0.0008546
0
0.0008481
-0.0008481
0
0.0008705
-0.0008705
0
0.0008516
-0.0008516
0
0.0008535
-0.0008535
0
0.0008501
-0.0008501
0
0.0008674
-0.0008674
0
0.0008545
-0.0008545
0
0.0008533
-0.0008533
0
0.0008661
-0.0008661
0
0.0008852
-0.0008852
0
0.0008655
-0.0008655
0
0.0008685
-0.0008685
0
0.0008709
-0.0008709
0
0.0008774
-0.0008774
0
0.0008753
-0.0008753
0
0.0008521
-0.0008521
0
0.0008507
-0.0008507
0
0.0008668
-0.0008668
0
0.0008479
-0.0008479
0
0.0008525
-0.0008525
0
0.0008488
-0.0008488
0
0.0008662
-0.0008662
0
0.0008535
-0.0008535
0
0.0008506
-0.0008506
0
0.0008628
-0.0008628
0
0.0008834
-0.0008834
0
0.0008634
-0.0008634
0
0.0008634
-0.0008634
0
0.0008604
-0.0008604
0
0.0008719
-0.0008719
0
0.0008703
-0.0008703
0
0.0008489
-0.0008489
0
0.0008458
-0.0008458
0
0.0008464
-0.0008464
0
0.0008441
-0.0008441
0
0.0008495
-0.0008495
0
0.0008483
-0.0008483
0
0.0008467
-0.0008467
0
0.0008834
-0.0008834
0
0.0008634
-0.0008634
0
0.0008668
-0.0008668
0
0.0008662
-0.0008662
0
0.0008601
-0.0008601
0
0.0008622
-0.0008622
0
0.0008606
-0.0008606
0
0.0008727
-0.0008727
0
0.00087
-0.00087
0
0.0008466
-0.0008466
0
0.0008455
-0.0008455
0
0.0008468
-0.0008468
0
0.0008439
-0.0008439
0
0.0008519
-0.0008519
0
0.00085
-0.00085
0
0.0008456
-0.0008456
0
0.0008806
-0.0008806
0
0.0008579
-0.0008579
0
0.0008647
-0.0008647
0
0.0008683
-0.0008683
0
0.0008739
-0.0008739
0
0.000876
-0.000876
0
0.0008544
-0.0008544
0
0.0008437
-0.0008437
0
0.0008693
-0.0008693
0
0.0008521
-0.0008521
0
0.000854
-0.000854
0
0.0008507
-0.0008507
0
0.0008675
-0.0008675
0
0.0008537
-0.0008537
0
0.0008523
-0.0008523
0
0.0008669
-0.0008669
0
0.0008902
-0.0008902
0
0.000874
-0.000874
0
0.0008627
-0.0008627
0
0.0008085
-0.0008085
0
0.0009791
-0.0009791
0
-0.0004888
-0.0008178
0.0008178
0
0.0008379
-0.0008379
0
0.0008877
-0.0008877
0
0.00087
-0.00087
0
0.0008539
-0.0008539
0
0.0008639
-0.0008639
0
0.0008546
-0.0008546
0
0.0008533
-0.0008533
0
0.0008838
-0.0008838
0
0.0008627
-0.0008627
0
0.0009024
-0.0009024
0
1.55e-05
-0.0004861
-0.0005139
0.001
-0.0005163
-0.0004837
0.001
-0.0004831
-0.0005169
0.001
-0.0005051
-0.0004949
0.001
-0.000498
-0.000502
0.001
-0.0005116
-0.0004884
0.001
-0.0005062
-0.0004938
0.001
-0.0004882
-0.0005118
0.001
-0.0004587
-0.0005413
0.001
-0.0004258
-0.0005742
0.001
0.0008363
-0.0008363
0
-0.0008701
0.0008701
0
-3.38e-05
-0.0008889
0.0008889
0
-1.88e-05
-0.0009036
0.0009036
0
-1.47e-05
-0.0008958
0.0008958
0
7.8e-06
-0.0008964
0.0008964
0
-6e-07
-0.0008916
0.0008916
0
4.8e-06
-0.0009033
0.0009033
0
-1.17e-05
-0.000897
0.000897
0
6.3e-06
-0.0009202
0.0009202
0
-2.32e-05
-0.0009046
0.0009046
0
1.56e-05
-0.0008881
0.0008881
0
1.65e-05
-0.0008914
0.0008914
0
-3.3e-06
-0.0008911
0.0008911
0
3e-07
-0.0008983
0.0008983
0
-7.2e-06
-0.0008911
0.0008911
0
7.2e-06
-0.0008929
0.0008929
0
-1.8e-06
-0.0009003
0.0009003
0
-7.4e-06
-0.0008841
0.0008841
0
1.62e-05
-0.0008976
0.0008976
0
-1.35e-05
-0.000905
0.000905
0
-7.4e-06
-0.0008897
0.0008897
0
1.53e-05
-0.0008865
0.0008865
0
3.2e-06
-0.0008972
0.0008972
0
-1.07e-05
-0.0008846
0.0008846
0
1.26e-05
-0.0008898
0.0008898
0
-5.2e-06
-0.0008911
0.0008911
0
-1.3e-06
-0.0008991
0.0008991
0
-8e-06
-0.0008927
0.0008927
0
6.4e-06
-0.0008962
0.0008962
0
-3.5e-06
-0.0009092
0.0009092
0
-1.3e-05
-0.0009216
0.0009216
0
-1.24e-05
-0.0009106
0.0009106
0
1.1e-05
-0.0009079
0.0009079
0
2.7e-06
-0.0008901
0.0008901
0
1.78e-05
-0.0008868
0.0008868
0
3.3e-06
-0.0008982
0.0008982
0
-1.14e-05
-0.0008829
0.0008829
0
1.53e-05
-0.0008966
0.0008966
0
-1.37e-05
-0.0009053
0.0009053
0
-8.7e-06
-0.0008976
0.0008976
0
7.7e-06
-0.0009203
0.0009203
0
-2.27e-05
-0.0009041
0.0009041
0
1.62e-05
-0.0008874
0.0008874
0
1.67e-05
-0.0008904
0.0008904
0
-3e-06
-0.0008894
0.0008894
0
1e-06
-0.0008954
0.0008954
0
-6e-06
-0.0008833
0.0008833
0
1.21e-05
-0.0008848
0.0008848
0
-1.5e-06
-0.0008977
0.0008977
0
-1.29e-05
-0.0008833
0.0008833
0
1.44e-05
-0.0008973
0.0008973
0
-1.4e-05
-0.0009049
0.0009049
0
-7.6e-06
-0.0008898
0.0008898
0
1.51e-05
-0.000887
0.000887
0
2.8e-06
-0.0008987
0.0008987
0
-1.17e-05
-0.0008866
0.0008866
0
1.21e-05
-0.0008909
0.0008909
0
-4.3e-06
-0.0008908
0.0008908
0
1e-07
-0.0008982
0.0008982
0
-7.4e-06
-0.0008912
0.0008912
0
7e-06
-0.0008931
0.0008931
0
-1.9e-06
-0.0009006
0.0009006
0
-7.5e-06
-0.000884
0.000884
0
1.66e-05
-0.0008968
0.0008968
0
-1.28e-05
-0.0009041
0.0009041
0
-7.3e-06
-0.0008894
0.0008894
0
1.47e-05
-0.000887
0.000887
0
2.4e-06
-0.0008986
0.0008986
0
-1.16e-05
-0.0008834
0.0008834
0
1.52e-05
-0.000897
0.000897
0
-1.36e-05
-0.0009058
0.0009058
0
-8.8e-06
-0.0008979
0.0008979
0
7.9e-06
-0.0009206
0.0009206
0
-2.27e-05
-0.0009044
0.0009044
0
1.62e-05
-0.000888
0.000888
0
1.64e-05
-0.0008916
0.0008916
0
-3.6e-06
-0.0008917
0.0008917
0
-1e-07
-0.0009011
0.0009011
0
-9.4e-06
-0.0008889
0.0008889
0
1.22e-05
-0.0008868
0.0008868
0
2.1e-06
-0.0008985
0.0008985
0
-1.17e-05
-0.0008832
0.0008832
0
1.53e-05
-0.0008969
0.0008969
0
-1.37e-05
-0.0009057
0.0009057
0
-8.8e-06
-0.000898
0.000898
0
7.7e-06
-0.0009209
0.0009209
0
-2.29e-05
-0.0009047
0.0009047
0
1.62e-05
-0.0008882
0.0008882
0
1.65e-05
-0.0008917
0.0008917
0
-3.5e-06
-0.0008914
0.0008914
0
3e-07
-0.0008987
0.0008987
0
-7.3e-06
-0.0008914
0.0008914
0
7.3e-06
-0.0008931
0.0008931
0
-1.7e-06
-0.0009005
0.0009005
0
-7.4e-06
-0.0008842
0.0008842
0
1.63e-05
-0.0008976
0.0008976
0
-1.34e-05
-0.0009049
0.0009049
0
-7.3e-06
-0.0008897
0.0008897
0
1.52e-05
-0.0008868
0.0008868
0
2.9e-06
-0.0008987
0.0008987
0
-1.19e-05
-0.0008868
0.0008868
0
1.19e-05
-0.0008913
0.0008913
0
-4.5e-06
-0.0008914
0.0008914
0
-1e-07
-0.0008986
0.0008986
0
-7.2e-06
-0.000891
0.000891
0
7.6e-06
-0.0008918
0.0008918
0
-8e-07
-0.0008975
0.0008975
0
-5.7e-06
-0.0008811
0.0008811
0
1.64e-05
-0.0008959
0.0008959
0
-1.48e-05
-0.0009042
0.0009042
0
-8.3e-06
-0.0008895
0.0008895
0
1.47e-05
-0.0008871
0.0008871
0
2.4e-06
-0.0008988
0.0008988
0
-1.17e-05
-0.0008837
0.0008837
0
1.51e-05
-0.0008974
0.0008974
0
-1.37e-05
-0.0009062
0.0009062
0
-8.8e-06
-0.0008984
0.0008984
0
7.8e-06
-0.0009209
0.0009209
0
-2.25e-05
-0.0009045
0.0009045
0
1.64e-05
-0.0008879
0.0008879
0
1.66e-05
-0.0008915
0.0008915
0
-3.6e-06
-0.0008916
0.0008916
0
-1e-07
-0.0009008
0.0009008
0
-9.2e-06
-0.0008879
0.0008879
0
1.29e-05
-0.0008861
0.0008861
0
1.8e-06
-0.0008988
0.0008988
0
-1.27e-05
-0.0008838
0.0008838
0
1.5e-05
-0.0008978
0.0008978
0
-1.4e-05
-0.0009055
0.0009055
0
-7.7e-06
-0.0008827
0.0008827
0
2.28e-05
-0.0008873
0.0008873
0
-4.6e-06
-0.0008989
0.0008989
0
-1.16e-05
-0.0008868
0.0008868
0
1.21e-05
-0.0008912
0.0008912
0
-4.4e-06
-0.0008912
0.0008912
0
0
-0.0008986
0.0008986
0
-7.4e-06
-0.0008915
0.0008915
0
7.1e-06
-0.0008933
0.0008933
0
-1.8e-06
-0.0009006
0.0009006
0
-7.3e-06
-0.0008842
0.0008842
0
1.64e-05
-0.0008975
0.0008975
0
-1.33e-05
-0.0009047
0.0009047
0
-7.2e-06
-0.0008893
0.0008893
0
1.54e-05
-0.0008861
0.0008861
0
3.2e-06
-0.0008969
0.0008969
0
-1.08e-05
-0.0008843
0.0008843
0
1.26e-05
-0.0008896
0.0008896
0
-5.3e-06
-0.0008908
0.0008908
0
-1.2e-06
-0.0008987
0.0008987
0
-7.9e-06
-0.0008924
0.0008924
0
6.3e-06
-0.000896
0.000896
0
-3.6e-06
-0.0009091
0.0009091
0
-1.31e-05
-0.0009216
0.0009216
0
-1.25e-05
-0.0009108
0.0009108
0
1.08e-05
-0.0009082
0.0009082
0
2.6e-06
-0.0008905
0.0008905
0
1.77e-05
-0.0008871
0.0008871
0
3.4e-06
-0.0008985
0.0008985
0
-1.14e-05
-0.0008832
0.0008832
0
1.53e-05
-0.0008968
0.0008968
0
-1.36e-05
-0.0009056
0.0009056
0
-8.8e-06
-0.0008978
0.0008978
0
7.8e-06
-0.0009206
0.0009206
0
-2.28e-05
-0.0009046
0.0009046
0
1.6e-05
-0.0008881
0.0008881
0
1.65e-05
-0.0008913
0.0008913
0
-3.2e-06
-0.0008905
0.0008905
0
8e-07
-0.0008967
0.0008967
0
-6.2e-06
-0.0008846
0.0008846
0
1.21e-05
-0.0008856
0.0008856
0
-1e-06
-0.0008969
0.0008969
0
-1.13e-05
-0.0008783
0.0008783
0
1.86e-05
-0.000885
0.000885
0
-6.7e-06
-0.0008842
0.0008842
0
8e-07
-0.000864
0.000864
0
2.02e-05
-0.0008766
0.0008766
0
-1.26e-05
-0.000904
0.000904
0
-2.74e-05
-0.0008721
0.0008721
0
3.19e-05
0.0007053
-0.0007053
0
-0.0002947
0.0001668
-0.001
-0.00039077
-0.00060923
-0.00053303
-0.00046697
-0.0005297
-0.0004703
-0.00050179
-0.00049821
-0.0005004
-0.0004996
-0.0005012
-0.0004988
-0.0005237
-0.0004763
-0.0005468
-0.0004532
-0.0005017
-0.0004983
-0.0004583
-0.0005417
-0.00096
-0.0008364
-0.000847122
0.000847122
-0.00081461
0.00081461
0.000839163
-0.000839163
0.000846721
-0.000846721
0.000834428
-0.000834428
0.00085701
-0.00085701
0.000861154
-0.000861154
0.000848676
-0.000848676
0.000851009
-0.000851009
0.000855629
-0.000855629
0.000858749
-0.000858749
0.00084914
-0.00084914
0.000862888
-0.000862888
0.000854295
-0.000854295
0.000865883
-0.000865883
0.000856183
-0.000856183
0.000855857
-0.000855857
0.000844193
-0.000844193
0.000849851
-0.000849851
0.00084396
-0.00084396
0.000863627
-0.000863627
0.000857423
-0.000857423
0.000862914
-0.000862914
0.00086719
-0.00086719
0.00085485
-0.00085485
0.000868379
-0.000868379
0.000843808
-0.000843808
0.000841225
-0.000841225
0.000859493
-0.000859493
0.000847886
-0.000847886
0.000863406
-0.000863406
0.000854386
-0.000854386
0.000855291
-0.000855291
0.000840542
-0.000840542
0.000844685
-0.000844685
0.000838098
-0.000838098
0.000857185
-0.000857185
0.000852877
-0.000852877
0.000860106
-0.000860106
0.000865285
-0.000865285
0.000855601
-0.000855601
0.000867898
-0.000867898
0.000850615
-0.000850615
0.000847631
-0.000847631
0.000864873
-0.000864873
0.000853564
-0.000853564
0.000873094
-0.000873094
0.000860138
-0.000860138
0.000862924
-0.000862924
0.000848448
-0.000848448
0.00085072
-0.00085072
0.000841677
-0.000841677
0.000857015
-0.000857015
0.000850411
-0.000850411
0.000851552
-0.000851552
0.000857743
-0.000857743
0.000850745
-0.000850745
0.000861108
-0.000861108
0.000846464
-0.000846464
0.000843526
-0.000843526
0.000864427
-0.000864427
0.000859079
-0.000859079
0.000852306
-0.000852306
0.000857042
-0.000857042
0.000846123
-0.000846123
0.00086318
-0.00086318
0.000856917
-0.000856917
0.000842855
-0.000842855
0.000863057
-0.000863057
0.000858556
-0.000858556
0.000860407
-0.000860407
0.000864644
-0.000864644
0.000854221
-0.000854221
0.000868498
-0.000868498
0.000852049
-0.000852049
0.000843066
-0.000843066
0.000857578
-0.000857578
0.000863614
-0.000863614
0.000852314
-0.000852314
0.000854005
-0.000854005
0.000845665
-0.000845665
0.000863819
-0.000863819
0.000857338
-0.000857338
0.000862807
-0.000862807
0.000866227
-0.000866227
0.000857671
-0.000857671
0.000875191
-0.000875191
0.000852569
-0.000852569
0.000848874
-0.000848874
0.000866106
-0.000866106
0.00085237
-0.00085237
0.000872859
-0.000872859
0.00086142
-0.00086142
0.00086418
-0.00086418
0.000844522
-0.000844522
0.00084818
-0.00084818
0.000853962
-0.000853962
0.000879691
-0.000879691
0.000834652
-0.000834652
-0.00139077
-0.0002399
0.0005286
-0.0009968
-0.0004714
0.0005182
-0.0010503
-0.0004818
-0.0010136
-0.0009693
-0.0005094
-0.0004906
-0.0004953
-0.0005047
-0.0005095
-0.0004905
-0.0004922
-0.0005078
-0.000487
-0.000513
-0.0005182
-0.0004818
-0.0004998
-0.0005002
-0.0004987
-0.0005013
-0.0004955
-0.0005045
-0.0004916
-0.0005084
-0.0004915
-0.0005085
-0.0005056
-0.0004944
-0.0004902
-0.0005098
-0.0004951
-0.0005049
-0.0004846
-0.0005154
-0.0005139
-0.0004861
-0.0004969
-0.0005031
-0.0005019
-0.0004981
-0.0005033
-0.0004967
-0.0004972
-0.0005028
-0.0005043
-0.0004957
-0.0004947
-0.0005053
-0.0004819
-0.0005181
-0.0005029
-0.0004971
-0.0004796
-0.0005204
-0.0004496
-0.0005504
-0.0006457
-0.0001721
-0.00065
-0.00035
0.0008751
-0.0008751
0
-0.0008521
0.0008521
0
-0.0008781
0.0008781
0
-0.000861
0.000861
0
-0.0008718
0.0008718
0
-0.0008754
0.0008754
0
-0.0008644
0.0008644
0
-0.0008709
0.0008709
0
-0.000876
0.000876
0
-0.0008459
0.0008459
0
-0.0008722
0.0008722
0
-0.0008775
0.0008775
0
-0.0008659
0.0008659
0
-0.0008875
0.0008875
0
-0.0008695
0.0008695
0
-0.0008771
0.0008771
0
-0.0008871
0.0008871
0
-0.0008569
0.0008569
0
-0.0008786
0.0008786
0
-0.0008587
0.0008587
0
-0.0008671
0.0008671
0
-0.0008798
0.0008798
0
-0.0008597
0.0008597
0
-0.0008686
0.0008686
0
-0.000875
0.000875
0
-0.0008445
0.0008445
0
-0.0008714
0.0008714
0
-0.0008755
0.0008755
0
-0.0008629
0.0008629
0
-0.0008847
0.0008847
0
-0.0008674
0.0008674
0
-0.0008732
0.0008732
0
-0.0008869
0.0008869
0
-0.0008515
0.0008515
0
-0.0008729
0.0008729
0
-0.0008548
0.0008548
0
-0.0008634
0.0008634
0
-0.0008717
0.0008717
0
-0.0008396
0.0008396
0
-0.0008662
0.0008662
0
-0.0008721
0.0008721
0
-0.0008599
0.0008599
0
-0.00087
0.00087
0
-0.000866
0.000866
0
-0.0008572
0.0008572
0
-0.0008825
0.0008825
0
-0.0008497
0.0008497
0
-0.0008718
0.0008718
0
-0.0008863
0.0008863
0
-0.0008522
0.0008522
0
-0.0008736
0.0008736
0
-0.0008532
0.0008532
0
-0.0008616
0.0008616
0
-0.0008721
0.0008721
0
-0.0008392
0.0008392
0
-0.0008672
0.0008672
0
-0.0008748
0.0008748
0
-0.0008601
0.0008601
0
-0.000868
0.000868
0
-0.0008658
0.0008658
0
-0.0008533
0.0008533
0
-0.0008827
0.0008827
0
-0.0008537
0.0008537
0
-0.0008768
0.0008768
0
-0.0008608
0.0008608
0
-0.000868
0.000868
0
-0.0008735
0.0008735
0
-0.0008641
0.0008641
0
-0.0008716
0.0008716
0
-0.0008765
0.0008765
0
-0.0008465
0.0008465
0
-0.0008718
0.0008718
0
-0.0008762
0.0008762
0
-0.0008661
0.0008661
0
-0.0008903
0.0008903
0
-0.0008758
0.0008758
0
-0.0008922
0.0008922
0
-0.00086
0.00086
0
-0.000684
0.000684
0
0.000562
-0.0010481
0.0008372
-0.0008372
0
-0.0008453
0.0008453
0
-0.0008854
0.0008854
0
-0.0008493
0.0008493
0
-0.0008733
0.0008733
0
-0.0008808
0.0008808
0
-0.0008635
0.0008635
0
-0.0008675
0.0008675
0
-0.0008676
0.0008676
0
-3.97e-05
-0.0004986
-0.0005014
0.001
-0.0005111
-0.0004889
0.001
-0.0004903
-0.0005097
0.001
-0.0005225
-0.0004775
0.001
-0.0004988
-0.0005012
0.001
-0.0005206
-0.0004794
0.001
-0.0005259
-0.0004741
0.001
-0.0005257
-0.0004743
0.001
-0.0005711
-0.0004289
0.001
-0.000982
-0.000596
-0.000404
0.001
-0.0005454
-0.0004546
-0.0005104
-0.0004896
-0.00050156
-0.00049844
-0.00052316
-0.00047684
-0.0005001
-0.0004999
-0.0004979
-0.0005021
-0.0004705
-0.0005295
-0.0004996
-0.0005004
-0.00104343
-0.000853073
0.000853073
0.000806024
-0.000806024
-0.000862964
0.000862964
-0.000829848
0.000829848
-0.000852755
0.000852755
-0.000866521
0.000866521
-0.000842356
0.000842356
-0.000859533
0.000859533
-0.000832552
0.000832552
-0.000863395
0.000863395
-0.000842702
0.000842702
-0.0008453
0.0008453
-0.000843032
0.000843032
-0.000881349
0.000881349
-0.000843241
0.000843241
-0.000858001
0.000858001
-0.000843553
0.000843553
-0.000850383
0.000850383
-0.000857058
0.000857058
-0.000838706
0.000838706
-0.000854603
0.000854603
-0.00083729
0.00083729
-0.000854168
0.000854168
-0.000851335
0.000851335
-0.000852981
0.000852981
-0.000842579
0.000842579
-0.000842593
0.000842593
-0.000838185
0.000838185
-0.000839389
0.000839389
-0.000848984
0.000848984
-0.000842144
0.000842144
-0.00085674
0.00085674
-0.000844114
0.000844114
-0.000843585
0.000843585
-0.000852666
0.000852666
-0.000831666
0.000831666
-0.000850406
0.000850406
-0.000835928
0.000835928
-0.000867607
0.000867607
-0.000850865
0.000850865
-0.000853703
0.000853703
-0.00084385
0.00084385
-0.000850591
0.000850591
-0.000844996
0.000844996
-0.000843402
0.000843402
-0.00085467
0.00085467
-0.000860004
0.000860004
-0.000862738
0.000862738
-0.000852423
0.000852423
-0.000850708
0.000850708
-0.000857059
0.000857059
-0.000834141
0.000834141
-0.000855913
0.000855913
-0.000830711
0.000830711
-0.000858023
0.000858023
-0.000846323
0.000846323
-0.000845579
0.000845579
-0.000839557
0.000839557
-0.000848638
0.000848638
-0.000840403
0.000840403
-0.000866979
0.000866979
-0.000853434
0.000853434
-0.000855486
0.000855486
-0.000863773
0.000863773
-0.000837927
0.000837927
-0.000854741
0.000854741
-0.000857893
0.000857893
-0.000836519
0.000836519
-0.000866964
0.000866964
-0.000835411
0.000835411
-0.000868897
0.000868897
-0.00084727
0.00084727
-0.000853805
0.000853805
-0.000845013
0.000845013
-0.000851669
0.000851669
-0.000839746
0.000839746
-0.000862657
0.000862657
-0.000853873
0.000853873
-0.000855104
0.000855104
-0.000860764
0.000860764
-0.000838103
0.000838103
-0.000854252
0.000854252
-0.000865402
0.000865402
-0.00085225
0.00085225
-0.000852399
0.000852399
-0.000859255
0.000859255
-0.000848746
0.000848746
-0.000851986
0.000851986
-0.000846157
0.000846157
-0.000843981
0.000843981
-0.000852998
0.000852998
-0.000860587
0.000860587
-0.000864344
0.000864344
-0.000849506
0.000849506
-0.000847678
0.000847678
-0.000859512
0.000859512
-0.000855988
0.000855988
-0.000835328
0.000835328
-0.000852206
0.000852206
-0.0008899
0.000152878
-0.0010051
-0.0010109
-0.0009972
-0.0010268
-0.0009968
-0.000999
-0.0009976
-0.0009794
-0.0009858
-0.0009958
-0.0009821
-0.0010012
-0.0009923
-0.0009935
-0.001003
-0.0009916
-0.001002
-0.0010177
-0.0009969
-0.0009923
-0.0009743
-0.0009877
-0.0009891
-0.0009742
-0.0009388
-4e-06
-4e-06
1.58e-05
-1.72e-05
-2.73e-05
6.1e-06
-1.93e-05
-2.25e-05
4.2e-06
-4.8e-06
-2.3e-05
-1.26e-05
-2.14e-05
1.57e-05
-1.16e-05
-1.86e-05
1.4e-05
-1.2e-06
1.66e-05
-1.5e-05
-2.91e-05
7.1e-06
-2.07e-05
-2.25e-05
4.3e-06
-5.2e-06
-2.2e-05
-1.23e-05
-2.19e-05
1.6e-05
-9.8e-06
-2.35e-05
8.9e-06
-1e-06
1.55e-05
-1.45e-05
-2.59e-05
6.8e-06
-2.21e-05
-2.26e-05
-1.16e-05
-2.33e-05
1.74e-05
6.2e-06
-1.57e-05
1.65e-05
-1.17e-05
-2.41e-05
8.4e-06
-9e-07
1.68e-05
-1.5e-05
-2.66e-05
7.6e-06
-2.33e-05
-2.29e-05
-1.01e-05
-2.24e-05
1.48e-05
4.6e-06
-1.8e-05
1.46e-05
-2.9e-06
1.52e-05
-1.36e-05
-2.98e-05
5.2e-06
-1.95e-05
-2.25e-05
4.2e-06
-4.3e-06
-2.25e-05
-1.38e-05
-2.34e-05
1.44e-05
-1.82e-05
2.7e-06
0.0001245
-7.4e-06
2.3e-06
2.07e-05
-1.94e-05
-1.69e-05
-8.9e-06
-1.42e-05
1.62e-05
-0.0010125
-0.0010274
-0.0009734
-0.0010276
-0.0009968
-0.0010322
-0.0010321
-0.0010139
-0.0010298
-0.0010218
-0.0002743
-0.00102495
-0.0010005
-0.0009991
-0.0009942
-0.0010464
-5.951e-06
-2.3801e-05
1.6873e-05
-1.8327e-05
-9.511e-06
1.8798e-05
-1.0857e-05
1.8457e-05
-7.766e-06
1.6047e-05
3.84e-06
1.9856e-05
-2.7054e-05
2.2642e-05
-1.818e-06
1.2304e-05
-6.19e-06
-7.207e-06
5.254e-06
9.024e-06
2.0133e-05
8.746e-06
1.5855e-05
1.869e-06
2.58e-05
1.215e-06
3.04e-06
2.0104e-05
-1.098e-06
2.1262e-05
-2.354e-06
1.1177e-05
-3.043e-06
-7.981e-06
6.432e-06
6.779e-06
1.6949e-05
-7.501e-06
1.442e-05
1.898e-06
2.4048e-05
2.4e-08
2.635e-06
2.1471e-05
-1.106e-06
1.309e-05
-2.6e-06
1.0501e-05
-2.26e-06
-6.339e-06
7.536e-06
1.102e-06
1.97e-05
-6.471e-06
1.142e-05
5.166e-06
2.1551e-05
-2.174e-06
3.123e-06
-2.552e-06
5.645e-06
-3.18e-06
-6.731e-06
8.196e-06
8.439e-06
-9.76e-07
6.336e-06
-3.907e-06
2.3145e-05
-8.49e-06
1.7374e-05
4.16e-07
2.3485e-05
3.8e-07
3.32e-06
-5.079e-06
9.741e-06
-2.79e-06
-6.759e-06
7.562e-06
9.567e-06
-8.064e-06
1.0557e-05
1.3828e-05
-1.584e-06
2.6445e-05
5.83e-07
2.717e-06
2.2125e-05
-6.28e-07
1.2272e-05
-2.924e-06
1.4674e-05
-3.156e-06
-1.1332e-05
-2.026e-06
4.4363e-05
-1.7554e-05
-0.0010044
-0.0009848
-0.0009999
-0.0009992
-0.0010167
-0.0010141
-0.0010183
-0.0010025
-0.0010037
-0.0009972
-0.0010358
-0.00098
-0.0010134
-0.0009994
-0.0009762
-0.0010102
-0.0009981
-0.0010129
-0.0010333
-0.0009876
-0.0009958
-0.0009616
2.7e-05
-2.2e-05
1.3e-06
6.4e-06
2.37e-05
4.9e-06
1.28e-05
1.74e-05
2.59e-05
-2.15e-05
1.77e-05
2.42e-05
-2e-07
2.3e-06
4e-06
8.6e-06
1.62e-05
-2.05e-05
3.3e-06
6.6e-06
1.64e-05
1.3e-05
1.18e-05
1.61e-05
2.62e-05
-2.17e-05
1.79e-05
2.49e-05
1e-07
1.3e-06
4e-06
9.8e-06
2.65e-05
-2.04e-05
2.6e-06
5.9e-06
1.76e-05
2.53e-05
-4.5e-06
1.67e-05
2.38e-05
1.32e-05
-1.34e-05
2.6e-06
-9.6e-06
1.63e-05
-1.04e-05
9.6e-06
2.57e-05
-2.05e-05
3.6e-06
6.6e-06
1.61e-05
2.53e-05
-4.7e-06
1.53e-05
2.48e-05
1.45e-05
-1.26e-05
7.9e-06
-1.14e-05
1.44e-05
-2.02e-05
8e-07
6.4e-06
2.43e-05
4.2e-06
1.2e-05
1.76e-05
2.58e-05
-2.1e-05
1.81e-05
2.39e-05
-8e-07
1e-07
1.8e-06
2.95e-05
5.15e-05
-7e-07
-4.24e-05
1.54e-05
-4.6e-06
9.4e-06
2.62e-05
1.02e-05
-1.63e-05
4.9e-06
-0.0010058
-0.0010046
-0.0009795
-0.0009896
-0.0009732