/*--------------------------------*- C++ -*----------------------------------*\
  =========                 |
  \\      /  F ield         | OpenFOAM: The Open Source CFD Toolbox
   \\    /   O peration     | Website:  https://openfoam.org
    \\  /    A nd           | Version:  7
     \\/     M anipulation  |
\*---------------------------------------------------------------------------*/
FoamFile
{
    version     2.0;
    format      ascii;
    class       volScalarField;
    location    "0.38";
    object      T;
}
// * * * * * * * * * * * * * * * * * * * * * * * * * * * * * * * * * * * * * //

dimensions      [0 0 0 1 0 0 0];

internalField   nonuniform List<scalar> 
46572
(
0
0
0
0
0
0
0
0
0
0
0
0
0
0
0
0
0
0
0
0
0
0
0
0
0
0
0
0
0
0
0
0
0
0
0
0
0
0
0
0
0
0
0
0
0
0
0
0
0
0
0
0
0
0
0
0
0
0
0
0
0
0
0
0
0
0
0
0
0
0
0
0
0
0
0
0
0
0
0
0
0
0
0
0
0
0
0
0
0
0
0
0
0
0
0
0
0
0
0
0
0
0
0
0
0
0
0
0
0
0
0
0
0
0
0
0
0
0
0
0
0
0
0
0
0
0
0
0
0
0
0
0
0
0
0
0
0
0
0
0
0
0
0
0
0
0
0
0
0
0
0
0
0
0
0
0
0
0
0
0
0
0
0
0
0
0
0
0
0
0
0
0
0
0
0
0
0
0
0
0
0
0
0
0
0
0
0
0
0
0
0
0
0
0
0
0
0
0
0
0
0
0
0
0
0
0
0
0
0
0
0
0
0
0
0
0
0
0
0
0
0
0
0
0
0
0
0
0
0
0
0
0
0
0
0
0
0
0
0
0
0
0
0
0
0
0
0
0
0
0
0
0
0
0
0
0
0
0
0
0
0
0
0
0
0
0
0
0
0
0
0
0
0
0
0
0
0
0
0
0
0
0
0
0
0
0
0
0
0
0
0
0
0
0
0
0
0
0
0
-6.81802e-144
2.35504e-143
5.35548e-141
6.82818e-141
1.10677e-139
1.17058e-139
3.84857e-137
4.30586e-137
1.59136e-136
-1.70133e-136
6.54717e-134
7.57261e-134
2.36613e-132
2.77046e-132
1.55215e-132
1.8191e-132
1.18269e-132
1.38612e-132
4.9927e-131
6.32612e-131
3.098e-131
4.61084e-131
1.56467e-131
3.05774e-131
-1.27029e-130
-6.19581e-130
1.37084e-127
-1.11659e-127
3.82843e-125
1.33059e-125
6.22973e-125
8.31453e-126
8.44618e-123
7.94352e-123
2.1294e-122
2.45485e-122
1.36537e-122
1.55851e-122
2.44418e-122
-4.41868e-122
2.52405e-121
1.9538e-121
6.32091e-121
4.39503e-121
2.296e-120
1.12906e-120
2.19887e-120
-2.89247e-121
1.77763e-119
1.89181e-119
1.16132e-119
1.22748e-119
8.05998e-120
6.38497e-120
1.09098e-119
1.12487e-119
7.29371e-120
7.47204e-120
5.03821e-120
3.10364e-120
2.21888e-120
1.02e-119
1.15709e-119
3.41153e-119
-4.87036e-118
1.77021e-117
-4.10697e-117
-8.04829e-118
-5.64315e-117
-3.67568e-117
-8.3148e-117
1.64034e-117
-1.4783e-116
1.99967e-116
-1.13746e-115
-1.18602e-115
-2.04984e-115
3.90537e-115
-4.75014e-115
-1.14035e-115
-3.50752e-115
-1.10632e-115
-3.47581e-115
4.42402e-115
-1.79498e-114
5.98812e-114
-1.89651e-113
-4.55816e-114
-1.15221e-112
-1.05558e-112
-3.92414e-112
-3.21974e-112
-2.76499e-112
-2.22199e-112
-1.97392e-112
-1.445e-112
-6.80766e-112
-3.50089e-112
-1.18736e-111
-1.14378e-111
-7.87387e-112
-7.30845e-112
-7.03724e-112
9.43675e-113
-1.44595e-111
-6.50057e-112
-1.38174e-111
-2.36845e-112
-1.14604e-111
-3.59995e-113
-1.80257e-111
2.64858e-111
-3.05371e-110
-1.95104e-110
-3.53057e-109
-1.1997e-109
-2.65124e-109
-9.77867e-110
-2.02413e-109
-8.0726e-110
-1.57492e-109
-5.44861e-110
-9.1245e-109
-3.81511e-109
-1.75961e-108
-1.618e-108
-1.17198e-108
-1.02699e-108
-1.11038e-108
3.888e-109
-2.7004e-108
-7.08266e-109
-3.35763e-108
-2.19418e-108
-3.88618e-108
-1.1851e-108
-4.97264e-108
6.47581e-108
-8.59145e-108
-8.27066e-109
-2.12263e-107
-3.08491e-108
-1.64857e-107
-4.57687e-108
-2.17187e-107
-1.67388e-107
-1.5332e-107
-1.14758e-107
-1.19569e-107
-5.11705e-108
-5.70357e-107
-5.28427e-107
-3.77112e-107
-3.27531e-107
-4.15755e-107
3.34058e-107
-9.48796e-107
-1.82342e-107
-1.10385e-106
-6.73448e-107
-1.00344e-106
-5.56116e-107
-8.69353e-107
1.06274e-107
-1.03345e-106
-3.19127e-107
-1.03941e-106
5.81029e-107
-1.25128e-106
-2.94955e-107
-1.24846e-106
-7.10873e-107
-9.27141e-107
-4.25457e-107
-8.23196e-107
-5.07872e-107
-9.14351e-107
-6.55796e-107
-2.5337e-106
3.13111e-106
-8.14227e-106
-5.49018e-106
-6.79418e-106
-4.79991e-107
-5.52695e-106
-7.45344e-107
-2.32748e-105
-6.61287e-106
-4.132e-105
-3.56942e-105
-2.79064e-105
-2.30907e-105
-2.14486e-105
-8.52124e-106
-2.76269e-105
-1.63628e-105
-3.89193e-105
-1.65767e-105
-9.0846e-105
-2.4336e-105
-8.44414e-105
3.29014e-105
-6.9442e-105
9.22253e-106
-6.25332e-105
2.86966e-105
-5.33242e-105
1.24679e-105
-9.74173e-105
-1.94997e-105
-7.66108e-105
-2.32103e-105
-2.3223e-104
-9.41495e-105
-3.89054e-104
-3.44617e-104
-2.61123e-104
-2.21917e-104
-2.05743e-104
-5.86804e-105
-2.76608e-104
-1.25406e-104
-2.8139e-104
-1.98735e-104
-2.27736e-104
-1.33831e-104
-1.90514e-104
-4.48527e-105
-3.98329e-104
-3.39686e-104
-2.73012e-104
-2.23982e-104
-2.32351e-104
-1.94497e-104
-3.73419e-104
-3.19094e-104
-2.57911e-104
-2.20024e-104
-1.83465e-104
-1.22919e-104
-3.74213e-104
-3.602e-104
-2.46554e-104
-2.30526e-104
-1.80826e-104
-9.98339e-105
-1.80728e-104
-1.10143e-104
-1.61493e-104
-1.23107e-104
-1.19257e-104
-8.95673e-105
-9.14352e-105
-4.94078e-105
-1.473e-104
-1.44236e-104
-1.05361e-104
-6.51539e-105
-1.04217e-104
-7.16367e-105
-7.84038e-105
-5.6359e-105
-5.54344e-105
-3.74564e-105
-3.91727e-105
-2.47001e-105
-5.64951e-105
-4.59195e-105
-1.2321e-104
-5.37034e-105
-9.10226e-105
-3.91662e-105
-6.54537e-105
-3.05032e-105
-2.88943e-101
1.30517e-102
-9.322e-99
-1.26023e-98
1.30884e-96
1.48516e-96
1.53227e-95
1.17979e-95
-2.83448e-94
1.06752e-93
-3.22861e-93
1.13816e-92
1.49102e-90
-2.82949e-91
-9.06626e-87
5.21485e-88
-2.86755e-84
-1.35854e-84
-1.50631e-82
-1.69975e-82
-4.8065e-82
-9.82487e-83
-3.94912e-80
-4.73836e-15
-2.28681e-15
1.97275e-17
-5.1753e-20
-1.29106e-21
3.81713e-24
1.2396e-25
-4.27709e-28
3.1342e-29
-2.93094e-31
2.33749e-33
1.64067e-35
-2.89695e-37
8.34475e-40
8.92968e-42
-1.19932e-43
7.29446e-46
-2.58161e-48
-5.86101e-52
5.02404e-54
6.17065e-55
-2.98516e-58
-4.42434e-59
1.48311e-61
8.39349e-64
3.05463e-66
-5.7243e-70
-2.01306e-70
-7.36322e-73
-5.86793e-76
-5.64362e-15
0.00172194
0.00734524
0.0184015
0.0362443
0.0614293
0.0918872
0.122145
0.15374
0.179357
0.197296
0.204452
0.202826
0.188389
0.163191
0.13001
0.0912363
0.0502548
0.0135312
-0.0197222
-0.0455178
-0.0639184
-0.0741451
-0.0731045
-0.0719235
-0.0645747
-0.0550871
-0.0456196
-0.0372397
-0.0288734
-0.021817
-0.0158711
-0.0118387
-0.00851882
-0.00588713
-0.00401274
-0.00273629
-0.00186457
-0.00122893
-0.000782878
-0.000506823
-0.000317494
-0.000197803
-0.000122252
-7.22884e-05
-4.46626e-05
-2.69055e-05
-1.58945e-05
-9.44439e-06
-5.53139e-06
-3.16032e-06
-1.80004e-06
-1.03661e-06
-5.9788e-07
-3.35603e-07
-1.84042e-07
-1.02961e-07
-5.61318e-08
-3.03858e-08
-1.65519e-08
-8.67685e-09
-4.73982e-09
-2.53205e-09
-1.33264e-09
-6.99527e-10
-3.70139e-10
-1.96207e-10
-1.02187e-10
-5.15629e-11
-2.68984e-11
-1.36689e-11
-6.87466e-12
-3.45299e-12
-1.75801e-12
-8.72634e-13
-4.34118e-13
-2.12344e-13
-1.06611e-13
-5.23303e-14
-2.63496e-14
-1.04642e-14
-6.59842e-15
1.90709e-06
-2.60604e-06
2.87151e-06
-5.462e-06
-8.24167e-06
1.77498e-05
6.90525e-06
-0.000159269
-0.000418963
-0.000171841
0.000489006
-0.000473909
4.66702e-07
1.95024e-06
1.11073e-06
1.17702e-06
1.16528e-06
1.21307e-06
1.27466e-06
1.3439e-06
2.14027e-06
-2.55393e-07
-2.62346e-06
3.60299e-06
1.4296e-06
-3.4269e-06
5.55809e-07
-3.166e-07
-2.2876e-06
3.18996e-06
1.94369e-06
1.86711e-06
3.09563e-06
-4.11323e-06
5.64601e-07
-1.35693e-05
-7.033e-06
-1.50918e-05
-1.32066e-05
-8.61712e-06
-1.30996e-05
9.73834e-06
-4.46548e-06
2.41874e-05
1.03845e-05
2.19333e-05
1.51659e-05
-1.14088e-05
-2.82359e-07
-9.13121e-05
-5.58269e-05
-0.000203041
-0.00016746
-0.000288527
-0.000337796
-0.000238978
-0.000567609
5.71706e-05
-0.000826482
0.000749951
-0.000897925
0.00140716
-0.000290897
0.00321904
4.89177e-05
0.00604942
0.00108192
0.0101357
0.00273176
0.0157943
0.00521499
0.0229631
0.00859085
0.0318415
0.0127532
0.0419521
0.0180693
0.0542037
0.0237144
0.0669798
0.0306767
0.0804154
0.0370847
0.0943686
0.0433498
0.108742
0.0507514
0.122535
0.0572329
0.137236
0.0638754
0.149603
0.0696773
0.159802
0.0724626
0.170279
0.0759014
0.176578
0.0760447
0.181176
0.074012
0.185243
0.0718179
0.183424
0.0671606
0.182782
0.0613075
0.178649
0.0563739
0.170607
0.0476625
0.161107
0.0364145
0.148296
0.0246362
0.134894
0.0113302
0.117938
-0.00176662
0.100932
-0.0174163
0.0817238
-0.0309486
0.0633498
-0.0458587
0.0451942
-0.0600482
0.0259681
-0.0728449
0.0080276
-0.0847572
-0.00660923
-0.0955379
-0.0224622
-0.104238
-0.0357083
-0.111385
-0.0467774
-0.116874
-0.0552475
-0.119867
-0.061908
-0.122318
-0.0679235
-0.121924
-0.0696584
-0.120128
-0.0741624
-0.1175
-0.0724496
-0.112934
-0.0707535
-0.107196
-0.0698781
-0.102002
-0.0675517
-0.0958976
-0.0627419
-0.088565
-0.0603829
-0.0819342
-0.0550336
-0.0743153
-0.049675
-0.0669685
-0.0458057
-0.0604534
-0.0403871
-0.0532986
-0.0363787
-0.0476182
-0.0329058
-0.0425064
-0.0290635
-0.0373559
-0.0255559
-0.0325934
-0.0219893
-0.0281437
-0.0192242
-0.0244001
-0.0167216
-0.0210226
-0.0140969
-0.017819
-0.0122334
-0.0152518
-0.0102141
-0.012786
-0.00854316
-0.0106865
-0.00727151
-0.00899287
-0.00592771
-0.00739269
-0.00497388
-0.00617902
-0.0041825
-0.00517614
-0.00346109
-0.00427553
-0.00285436
-0.00351646
-0.00232919
-0.00287094
-0.00190326
-0.00235033
-0.00155717
-0.00191541
-0.00125104
-0.00154358
-0.00103055
-0.00125743
-0.000817019
-0.00100335
-0.000651886
-0.000800346
-0.000526849
-0.000644945
-0.000423602
-0.000517211
-0.00033207
-0.000407635
-0.000266868
-0.000325475
-0.000211237
-0.000257501
-0.00016682
-0.00020326
-0.000130566
-0.000159499
-0.000102719
-0.000125511
-8.09044e-05
-9.8624e-05
-6.27941e-05
-7.66738e-05
-4.9675e-05
-6.02237e-05
-3.79651e-05
-4.62842e-05
-2.91853e-05
-3.56171e-05
-2.27753e-05
-2.77218e-05
-1.76916e-05
-2.15025e-05
-1.34347e-05
-1.63952e-05
-1.04501e-05
-1.26959e-05
-7.90107e-06
-9.63429e-06
-5.98925e-06
-7.312e-06
-4.61424e-06
-5.60449e-06
-3.43609e-06
-4.19767e-06
-2.62869e-06
-3.20781e-06
-2.0168e-06
-2.45974e-06
-1.5291e-06
-1.86489e-06
-1.15747e-06
-1.4104e-06
-8.67283e-07
-1.05901e-06
-6.55774e-07
-8.01211e-07
-4.96557e-07
-6.05115e-07
-3.66923e-07
-4.49309e-07
-2.78827e-07
-3.39235e-07
-2.05497e-07
-2.51132e-07
-1.52312e-07
-1.8625e-07
-1.14594e-07
-1.39942e-07
-8.51993e-08
-1.04071e-07
-6.2444e-08
-7.64805e-08
-4.67609e-08
-5.71155e-08
-3.46199e-08
-4.22981e-08
-2.56292e-08
-3.12899e-08
-1.88375e-08
-2.30388e-08
-1.38939e-08
-1.70046e-08
-1.02742e-08
-1.25542e-08
-7.4902e-09
-9.16883e-09
-5.55989e-09
-6.78414e-09
-4.02114e-09
-4.92072e-09
-2.92131e-09
-3.57688e-09
-2.14879e-09
-2.62737e-09
-1.57702e-09
-1.92681e-09
-1.13435e-09
-1.39028e-09
-8.32488e-10
-1.01815e-09
-6.03811e-10
-7.38774e-10
-4.37884e-10
-5.35605e-10
-3.16054e-10
-3.86859e-10
-2.28485e-10
-2.80154e-10
-1.65603e-10
-2.02739e-10
-1.18053e-10
-1.44674e-10
-8.3949e-11
-1.0291e-10
-6.09456e-11
-7.46686e-11
-4.3966e-11
-5.38723e-11
-3.17634e-11
-3.89245e-11
-2.29136e-11
-2.80557e-11
-1.61942e-11
-1.98835e-11
-1.17042e-11
-1.43256e-11
-8.2623e-12
-1.01279e-11
-5.83399e-12
-7.16556e-12
-4.18004e-12
-5.1232e-12
-2.91587e-12
-3.5814e-12
-2.08135e-12
-2.55625e-12
-1.49152e-12
-1.83111e-12
-1.05843e-12
-1.30018e-12
-7.50605e-13
-9.21777e-13
-5.30093e-13
-6.5162e-13
-3.7493e-13
-4.6124e-13
-2.66135e-13
-3.26758e-13
-1.85463e-13
-2.28237e-13
-1.32113e-13
-1.62258e-13
-9.26944e-14
-1.13989e-13
-6.53934e-14
-8.03164e-14
-4.63283e-14
-5.67249e-14
-3.21817e-14
-3.93324e-14
-2.17388e-14
-2.67152e-14
-1.53693e-14
-1.90103e-14
-1.18044e-14
-7.81076e-15
-1.41004e-14
-1.02951e-35
-9.33578e-35
-1.7879e-31
5.27749e-29
2.96985e-26
-2.68478e-24
4.5433e-24
-4.25674e-21
1.4037e-18
1.07261e-16
-3.65445e-16
3.10778e-16
-1.2866e-15
0
0
0
0
0
0
0
0
0
0
1.05995e-35
-2.08558e-31
3.66006e-30
5.82308e-30
-1.13617e-28
-9.39469e-28
1.07019e-27
6.03602e-27
1.03585e-26
1.10057e-26
8.80039e-27
2.11599e-26
4.38929e-27
-7.47211e-27
-2.35578e-26
-3.00489e-26
-4.35191e-26
-3.99169e-26
-8.6135e-27
-6.10592e-28
6.0864e-27
8.63858e-27
6.01843e-27
5.28189e-27
4.64103e-27
3.58389e-27
1.87277e-27
1.00549e-27
-4.32322e-30
-1.92698e-28
-2.98118e-28
-3.29657e-28
-2.98268e-28
-2.84558e-28
-1.69753e-28
-5.46421e-29
7.66744e-29
1.49014e-28
1.6726e-28
1.16269e-28
3.84199e-29
-2.68906e-29
-7.26275e-29
-7.13065e-29
-5.90635e-29
-3.99304e-29
-2.55889e-29
-1.06738e-29
-4.52843e-30
-1.72227e-30
1.50656e-30
1.06637e-30
7.8319e-31
6.77205e-31
5.96755e-31
4.96906e-31
3.10292e-31
2.06102e-31
1.20464e-31
7.07815e-32
2.97992e-32
1.55048e-32
6.55496e-33
2.36252e-34
-9.67491e-34
-9.33299e-34
-1.87442e-33
-1.36292e-33
-9.66618e-34
-6.55838e-34
-4.44162e-34
-2.66521e-34
-1.53047e-34
-8.24928e-35
-4.01835e-35
-2.0582e-35
-7.23383e-36
-3.6739e-36
-2.08037e-36
-2.36965e-37
7.20831e-38
3.37701e-37
1.87417e-37
1.07574e-37
5.95122e-38
3.70329e-38
2.47894e-38
1.51529e-38
5.21599e-39
-2.14539e-36
-4.90677e-80
-2.44255e-19
-5.01491e-19
-1.79895e-16
-2.53215e-17
4.01251e-17
-1.82972e-19
2.59774e-20
-1.91876e-22
2.53612e-24
-3.48894e-26
1.09655e-30
1.15128e-30
-4.32969e-32
4.39359e-34
-2.39121e-36
5.32709e-40
1.43753e-40
-1.07922e-42
3.56987e-45
2.36041e-48
-1.17438e-49
1.54985e-52
2.6186e-54
5.031e-56
-4.88942e-58
-1.04926e-60
1.59295e-62
4.11177e-65
1.85273e-67
-1.68741e-69
-1.41443e-71
-2.55652e-74
5.26502e-07
-7.74248e-78
0.00386768
0.0121573
0.02648
0.048121
0.0751877
0.10658
0.13799
0.165584
0.187172
0.203361
0.203902
0.195352
0.177341
0.148125
0.111601
0.0719067
0.0330546
-0.00628887
-0.0342847
-0.055671
-0.0678281
-0.0718352
-0.0728988
-0.0664066
-0.0585799
-0.0513685
-0.0407189
-0.0319856
-0.0248224
-0.018298
-0.0137638
-0.00991056
-0.00691685
-0.00495665
-0.00331994
-0.00226479
-0.00148973
-0.00095943
-0.000634328
-0.000392743
-0.000244394
-0.000153631
-9.32115e-05
-5.70115e-05
-3.4893e-05
-2.03613e-05
-1.23972e-05
-7.14101e-06
-4.09373e-06
-2.42213e-06
-1.36775e-06
-7.88733e-07
-4.41764e-07
-2.43562e-07
-1.38429e-07
-7.45161e-08
-4.05464e-08
-2.21911e-08
-1.18964e-08
-6.40543e-09
-3.48767e-09
-1.8077e-09
-9.80213e-10
-5.08736e-10
-2.69724e-10
-1.39931e-10
-7.12711e-11
-3.71925e-11
-1.89031e-11
-9.54862e-12
-4.94066e-12
-2.45179e-12
-1.21923e-12
-6.08957e-13
-2.98467e-13
-1.50186e-13
-7.35537e-14
-3.67932e-14
-1.95844e-14
3.85517e-07
-1.23226e-06
1.49328e-06
1.56406e-06
-8.30668e-06
4.44484e-06
3.0081e-05
-4.95595e-05
-0.000304642
-0.000413215
-0.000764961
2.03551e-06
1.23296e-06
1.0801e-06
1.15123e-06
1.25838e-06
1.29594e-06
1.34099e-06
5.13882e-07
2.56895e-06
-1.45213e-27
-1.4023e-06
1.70468e-32
-8.38144e-30
6.18238e-28
-2.13187e-25
1.3872e-23
-5.58955e-22
5.42593e-20
-3.59271e-17
-3.78957e-31
0
0
0
0
0
0
0
0
0
7.60299e-37
2.95427e-33
5.78646e-31
4.02294e-30
-7.6749e-29
-2.96687e-28
5.3278e-28
4.26374e-27
7.95382e-27
8.22334e-27
1.74533e-26
1.37638e-26
2.51011e-26
-1.33898e-27
-1.66698e-26
-3.74585e-26
-4.50657e-26
-4.3684e-26
-3.29256e-26
-8.34785e-27
-4.30101e-28
6.96715e-27
6.67827e-27
5.2944e-27
5.01555e-27
3.98324e-27
3.11602e-27
1.45268e-27
6.85579e-28
-1.50132e-28
-2.46461e-28
-3.2003e-28
-3.45411e-28
-3.07965e-28
-2.39094e-28
-1.29868e-28
1.42451e-29
1.31374e-28
1.90843e-28
1.64777e-28
8.97618e-29
2.94842e-30
-5.19694e-29
-6.13556e-29
-7.54055e-29
-4.73107e-29
-3.47953e-29
-1.97912e-29
-8.30259e-30
-2.81289e-30
-7.58384e-31
1.28597e-30
8.29405e-31
7.37498e-31
5.98135e-31
5.5802e-31
3.95116e-31
2.41391e-31
1.76529e-31
8.97369e-32
6.10156e-32
1.84406e-32
1.24631e-32
5.24109e-33
6.37437e-34
-7.09087e-34
-1.01487e-33
-1.58288e-33
-1.13382e-33
-7.93602e-34
-5.37462e-34
-3.62137e-34
-2.03096e-34
-1.07532e-34
-6.38999e-35
-3.06055e-35
-1.48535e-35
-5.72937e-36
-2.78953e-36
-1.54363e-36
-2.11221e-37
6.10022e-38
2.48173e-37
1.46144e-37
8.02389e-38
4.89375e-38
3.34169e-38
2.03618e-38
1.23721e-38
9.68388e-39
-1.96032e-79
0
5.27915e-24
-6.76285e-26
-9.30412e-29
3.24584e-30
-1.00347e-31
8.87186e-34
-4.32581e-36
-3.62407e-39
2.94771e-40
-1.91248e-42
5.7712e-45
1.01187e-47
-2.50562e-49
2.18115e-52
4.48759e-54
1.07594e-55
-9.46945e-58
-2.4243e-60
3.10887e-62
8.565e-65
4.29973e-67
-3.17299e-69
-2.87075e-71
-5.54519e-74
-2.1322e-77
0.00361471
0.0103671
0.0214717
0.0360188
0.052168
0.0667576
0.0786727
0.0846296
0.0872873
0.0761307
0.0610878
0.0396618
0.0099148
-0.0195969
-0.0507924
-0.0798395
-0.102635
-0.118279
-0.128466
-0.129441
-0.122694
-0.113232
-0.0993799
-0.0837942
-0.0701643
-0.0550505
-0.0427926
-0.0327221
-0.024017
-0.0177041
-0.0127166
-0.00884405
-0.00623128
-0.0041761
-0.00284177
-0.00187316
-0.00120642
-0.000790801
-0.000492928
-0.0003069
-0.000191287
-0.000116516
-7.07196e-05
-4.32127e-05
-2.53487e-05
-1.53045e-05
-8.86071e-06
-5.0851e-06
-2.98937e-06
-1.68922e-06
-9.75058e-07
-5.47827e-07
-3.02573e-07
-1.7129e-07
-9.26536e-08
-5.03252e-08
-2.7533e-08
-1.47947e-08
-7.94483e-09
-4.32055e-09
-2.24981e-09
-1.21297e-09
-6.29656e-10
-3.34247e-10
-1.73664e-10
-8.86887e-11
-4.61391e-11
-2.34896e-11
-1.1876e-11
-6.12513e-12
-3.04132e-12
-1.51711e-12
-7.58289e-13
-3.72397e-13
-1.86891e-13
-9.17757e-14
-4.58008e-14
-2.39988e-14
-5.78495e-07
3.98778e-06
-4.98313e-06
-1.52551e-06
2.81095e-05
5.76837e-06
-0.000193513
-0.000575372
7.84168e-07
-3.2924e-07
-3.5831e-07
-3.62616e-07
-2.90884e-07
-2.56329e-07
-3.04306e-07
-9.41262e-08
2.0361e-07
-3.04329e-07
-1.59292e-06
5.68485e-26
-5.49084e-24
-3.05431e-23
-5.71789e-21
2.03072e-18
0
0
0
0
0
0
0
0
9.50374e-37
-1.21321e-32
-2.74031e-30
-1.00947e-30
7.38288e-29
6.36665e-28
-3.26149e-27
-1.33641e-26
-1.65945e-26
-2.36631e-26
-2.34072e-26
-5.65554e-26
-1.65388e-26
6.68033e-27
5.6205e-26
6.19296e-26
5.97367e-26
5.11579e-26
-8.03287e-27
7.83606e-27
8.58302e-27
-1.95671e-27
3.57318e-27
-7.86096e-28
-1.86371e-27
-1.08874e-27
1.20315e-28
8.53902e-29
3.56399e-28
2.69831e-29
1.79064e-28
2.00753e-28
1.34057e-28
1.91631e-28
1.02612e-28
-4.32681e-30
-1.65751e-28
-2.00159e-28
-2.09651e-28
-1.30207e-29
3.19661e-29
5.56379e-29
5.21945e-29
5.10806e-29
2.60745e-29
1.98238e-29
4.16394e-30
-2.06441e-30
1.20071e-30
2.84282e-30
-4.08868e-31
1.58461e-30
6.75593e-31
3.42854e-31
1.76879e-31
-2.52953e-33
6.24085e-32
-2.72936e-33
1.08274e-32
-9.2427e-33
-5.65343e-33
-1.88927e-32
-9.37183e-34
-3.55419e-33
-4.32575e-33
-1.59542e-33
-2.81967e-34
-1.2324e-33
-2.25845e-34
-1.47678e-34
-1.4058e-34
-9.91257e-35
-6.13411e-35
-1.8556e-35
-1.53375e-35
-5.15693e-36
-1.23886e-36
1.49747e-36
1.1297e-36
-6.26424e-38
6.59326e-37
4.2699e-37
3.32886e-37
1.92957e-37
7.58005e-38
4.87482e-38
3.40781e-38
6.49364e-39
5.49127e-39
5.88328e-38
6.59586e-29
-5.04952e-31
3.67051e-33
4.56347e-35
-5.8777e-37
1.24586e-39
2.1697e-41
-2.49587e-43
1.48876e-45
-4.95614e-48
-2.292e-51
7.048e-55
1.21477e-54
2.97372e-58
-9.45665e-59
2.78415e-61
1.66985e-63
6.4026e-66
2.23946e-69
-3.99403e-70
-1.52766e-72
-1.37878e-75
0.00158446
0.00668705
0.0153132
0.0286125
0.0442628
0.0593226
0.0740671
0.0833444
0.0865696
0.0823133
0.0712872
0.0521957
0.0268004
-0.0042018
-0.0343111
-0.0648679
-0.0914932
-0.111532
-0.124378
-0.130701
-0.127662
-0.118108
-0.107382
-0.0924229
-0.0770514
-0.0620082
-0.0492766
-0.0377266
-0.0283213
-0.0205724
-0.0151187
-0.0107597
-0.00743554
-0.00507317
-0.00344689
-0.00233265
-0.00152648
-0.000978187
-0.000630595
-0.000394479
-0.00024423
-0.000151353
-9.0025e-05
-5.53846e-05
-3.3286e-05
-1.97067e-05
-1.16793e-05
-6.81576e-06
-3.90379e-06
-2.23107e-06
-1.28303e-06
-7.38551e-07
-4.1352e-07
-2.27911e-07
-1.2727e-07
-6.92422e-08
-3.75105e-08
-2.04663e-08
-1.07771e-08
-5.87249e-09
-3.13611e-09
-1.65344e-09
-8.68527e-10
-4.58443e-10
-2.43155e-10
-1.26279e-10
-6.39763e-11
-3.3312e-11
-1.69317e-11
-8.54287e-12
-4.28535e-12
-2.17885e-12
-1.08224e-12
-5.38854e-13
-2.64119e-13
-1.32469e-13
-6.51168e-14
-3.2692e-14
-1.79623e-06
3.03892e-06
1.23006e-07
-5.26098e-06
1.10387e-05
3.09737e-05
-6.71625e-05
-0.000365341
-0.000747959
-4.24781e-07
-3.07438e-07
-3.00645e-07
-2.60958e-07
-2.4978e-07
-2.41428e-07
-1.08483e-06
8.73796e-07
2.42882e-32
-1.69248e-29
1.56971e-27
-5.57918e-25
3.53199e-23
-1.20481e-21
1.25751e-19
-8.22333e-17
0
0
0
0
0
0
0
0
-3.17843e-35
-3.18602e-31
2.80521e-30
2.31117e-29
2.2537e-28
1.81245e-28
9.59557e-28
-1.59191e-26
-2.30043e-26
-2.8532e-26
-4.63637e-26
-3.65523e-26
-7.39101e-27
3.60255e-26
3.96664e-26
6.38859e-26
4.54008e-26
2.5606e-27
2.19466e-26
5.48271e-27
-6.7128e-27
4.36476e-27
-9.38965e-28
-1.95072e-27
-1.42747e-27
-4.85684e-28
-3.26012e-28
2.33794e-28
-8.95066e-29
1.82502e-28
1.82577e-28
1.77261e-28
1.65588e-28
7.49377e-29
1.78826e-28
-5.81185e-29
-1.48616e-28
-2.37837e-28
-4.34943e-29
5.20031e-29
1.06222e-28
7.10325e-29
-8.58052e-30
4.13564e-29
1.61813e-29
1.99309e-29
-3.04395e-30
4.45148e-30
2.00791e-30
-4.12828e-31
1.57396e-30
8.93101e-31
1.83907e-31
1.68821e-31
-1.0257e-31
1.50968e-31
3.31847e-32
3.05584e-33
3.69106e-33
-7.95551e-33
-1.15337e-32
-1.42224e-32
-4.38499e-33
-7.0735e-33
-2.11505e-33
2.2408e-34
-1.64405e-33
-2.48768e-34
-6.92021e-35
-1.12746e-34
-1.0504e-34
-1.00251e-34
-3.7758e-35
-1.40639e-35
-5.81312e-36
-2.95826e-36
2.45346e-36
1.35092e-36
2.38112e-37
9.4709e-37
5.40478e-37
4.58977e-37
2.49423e-37
9.91189e-38
5.68407e-38
3.45219e-38
1.61144e-38
6.59953e-39
-2.2487e-39
5.97012e-20
3.66285e-25
-2.82122e-24
-2.17936e-21
-4.0324e-22
-4.33721e-07
0.000209294
9.96681e-07
9.21457e-09
-4.99697e-35
1.66887e-28
0
0
0
0
0
0
0
0
0
0
0
0
0
0
0
0
0
0
0
0
0
0
0
0
0
0
0
0
0
0
0
0
0
0
0
0
0
0
0
0
0
0
0
0
0
0
0
0
0
0
0
0
0
0
0
0
0
0
0
0
0
0
0
0
0
0
0
0
0
0
0
0
0
0
0
0
0
0
0
0
0
0
0
0
0
0
0
0
0
0
0
0
0
0
0
0
0
0
0
0
0
0
0
0
0
0
0
0
0
0
0
0
0
0
0
0
0
0
0
0
0
0
0
0
0
0
0
0
0
0
0
0
0
0
0
0
0
0
0
0
0
0
0
0
0
0
0
0
0
0
0
0
0
0
0
0
0
0
0
0
0
0
0
0
0
0
0
0
0
0
0
0
0
0
0
0
0
0
0
0
0
0
0
0
0
0
0
0
0
0
0
0
0
0
0
0
0
-1.7113e-07
0
0
0
0
0
0
0
0
0
0
0
0
0
0
0
0
0
0
0
0
0
0
0
0
0
0
0
0
0
0
0
0
0
0
0
0
0
0
0
0
0
0
0
0
0
0
0
0
0
0
0
0
0
0
0
0
0
0
0
0
0
0
0
0
0
0
0
0
0
0
0
0
0
0
0
0
0
0
0
0
0
0
0
0
0
0
0
0
0
0
0
0
0
0
0
0
-6.12816e-143
0
3.90189e-139
4.97642e-139
1.17402e-138
1.4689e-138
1.11688e-137
1.96317e-138
2.12861e-134
2.21036e-134
5.10064e-133
6.19488e-133
3.17347e-132
3.01613e-132
2.49466e-130
2.89088e-130
1.61664e-130
1.79663e-130
1.60134e-130
-7.46068e-131
3.75905e-129
4.64363e-129
2.03343e-129
4.40433e-129
3.16592e-129
-6.64377e-129
8.98954e-128
-4.58307e-128
3.96363e-125
-5.23477e-125
1.61215e-122
-2.9858e-123
1.81226e-122
-6.29816e-124
1.1652e-120
1.27256e-120
1.03155e-120
1.01519e-120
8.5268e-121
5.53131e-121
2.41549e-119
2.23034e-119
3.91844e-119
3.84224e-119
1.07724e-118
-2.28233e-118
4.43578e-118
3.03993e-118
7.30095e-118
7.57151e-118
9.07302e-118
9.38496e-118
5.96676e-118
6.1173e-118
9.44168e-118
7.55438e-118
6.47404e-118
5.098e-118
4.56975e-118
2.94922e-118
9.38608e-118
9.3587e-118
-6.72652e-119
9.9352e-118
-5.60177e-117
9.15911e-117
-3.08821e-115
-2.00553e-115
-5.9047e-115
-4.47031e-115
-4.88577e-115
-2.53973e-116
-1.78398e-114
1.77614e-114
-5.3664e-114
-3.45115e-114
-4.78196e-114
-1.36272e-114
-8.50512e-113
-6.25876e-113
-6.60667e-113
-3.61181e-113
-4.4735e-113
-2.68828e-113
-1.37451e-112
3.99641e-112
-1.09964e-111
-4.07293e-112
-2.4669e-111
-9.14629e-112
-5.09235e-111
-3.36613e-111
-2.27425e-110
-8.69969e-111
-1.66733e-110
-4.4023e-111
-1.3698e-110
-2.58802e-111
-6.68779e-110
-5.39983e-110
-4.87087e-110
-3.52578e-110
-3.59105e-110
-2.35569e-110
-1.31567e-109
-8.24709e-110
-1.63908e-109
-1.08692e-109
-2.05736e-109
1.87713e-109
-2.01057e-109
1.47575e-109
-6.06842e-109
-4.41891e-109
-2.23378e-108
5.44438e-108
-3.86943e-107
-3.03797e-107
-2.8049e-107
-1.29155e-107
-2.10228e-107
-6.97171e-108
-1.6844e-107
-3.75695e-108
-8.89294e-107
-7.15027e-107
-7.31254e-107
-5.31253e-107
-5.47375e-107
-3.27727e-107
-2.00654e-106
-1.14398e-106
-3.09137e-106
-2.26214e-106
-2.36535e-106
-9.42485e-107
-4.26807e-106
1.36254e-106
-1.35334e-105
-9.61743e-106
-1.07333e-105
-4.79018e-106
-2.53918e-105
-2.58434e-105
-1.71548e-105
-1.41826e-105
-1.17503e-105
-8.87158e-106
-8.71496e-106
-3.11953e-106
-1.0037e-105
-6.11881e-106
-2.22028e-105
-1.68072e-105
-1.73646e-105
-8.52917e-106
-8.9598e-105
-5.98517e-105
-1.08957e-104
-8.50677e-105
-7.71137e-105
-5.54119e-105
-7.65515e-105
-1.59903e-105
-1.26016e-104
-1.001e-104
-1.06471e-104
-1.67248e-105
-1.96001e-104
-1.74197e-104
-1.34569e-104
-1.11388e-104
-9.14735e-105
-7.14017e-105
-7.82851e-105
-4.78791e-105
-5.64551e-105
-2.546e-105
-6.09035e-105
3.39978e-105
-6.0368e-104
-4.35928e-104
-4.90285e-104
-3.94502e-105
-7.96432e-104
-4.40506e-104
-6.14522e-104
-2.11249e-104
-2.18203e-103
-1.593e-103
-1.6559e-103
-1.17576e-103
-1.1854e-103
-8.37204e-104
-1.7885e-103
-1.24059e-103
-1.83192e-103
-1.41469e-103
-3.16825e-103
4.68605e-103
-8.56111e-103
-4.11153e-103
-1.30027e-102
-1.13054e-102
-9.11219e-103
-7.21461e-103
-1.02514e-102
-8.96592e-103
-7.58274e-103
-4.61726e-103
-1.01274e-102
-8.56389e-103
-7.07581e-103
-5.02709e-103
-1.92076e-102
-1.55505e-102
-1.48624e-102
-1.12241e-102
-1.06509e-102
-7.59114e-103
-1.93449e-102
-1.32064e-102
-2.20513e-102
-1.77191e-102
-1.54543e-102
-1.15312e-102
-1.51035e-102
-3.24189e-103
-1.85371e-102
-1.30958e-102
-1.67166e-102
-6.3127e-103
-1.19751e-102
-5.10392e-103
-9.71053e-103
-1.97811e-103
-1.54731e-102
-1.19944e-102
-1.06117e-102
-7.50965e-103
-1.02436e-102
-7.92262e-103
-1.1489e-102
-1.0642e-102
-7.84988e-103
-6.85745e-103
-1.21735e-102
-9.90417e-103
-1.14707e-102
-9.77919e-103
-7.89153e-103
-6.60349e-103
-6.09143e-103
-3.08053e-103
-6.49342e-103
-5.19197e-103
-4.50755e-103
-3.03088e-103
-6.62187e-103
-4.02222e-103
-5.94891e-103
-4.22506e-103
-4.13415e-103
-3.09205e-103
-3.17665e-103
-2.52348e-103
-2.3965e-103
-1.82633e-103
-2.56661e-103
1.29961e-103
-9.92601e-103
-7.4818e-103
-7.36963e-103
-4.29846e-103
-5.19842e-103
-2.96093e-103
-3.69375e-99
8.63583e-101
-1.5229e-96
-1.7881e-96
5.65669e-95
3.15697e-95
2.34609e-93
4.94431e-93
5.43208e-91
1.08032e-90
-3.0844e-90
1.55561e-89
1.9806e-88
4.16483e-88
-2.48288e-85
6.68205e-86
-7.08779e-83
-3.42686e-83
-4.14049e-81
-5.02897e-81
-5.90404e-81
-1.77102e-79
-2.94678e-81
4.19393e-25
-2.1254e-19
4.48102e-17
-2.50416e-16
-7.539e-16
7.93958e-17
-4.52016e-22
-2.48791e-21
-9.42774e-22
-1.15169e-28
-1.69902e-06
3.78993e-30
-1.15822e-31
1.00152e-33
-4.91566e-36
-5.45935e-39
3.39404e-40
-2.17023e-42
6.67193e-45
9.88829e-48
-2.80506e-49
2.15008e-52
5.36546e-54
1.23345e-55
-1.1099e-57
-2.63191e-60
3.54265e-62
1.00292e-64
5.02105e-67
-3.75926e-69
-3.22639e-71
-6.04153e-74
-2.12077e-77
-5.13937e-79
0.00198817
2.58295e-07
0.00487554
0.00813836
0.0115078
0.0130681
0.0117943
0.0095851
0.00458259
-0.00215297
-0.00986003
-0.0171698
-0.0259703
-0.0334039
-0.0389701
-0.0425463
-0.0418739
-0.0398569
-0.0357808
-0.0292345
-0.0251036
-0.0186485
-0.0118366
-0.00880491
-0.00525775
-0.00298084
-0.000852349
-0.000209917
0.000261922
0.000783335
0.00114161
0.000774734
0.000602038
0.000436824
0.000348846
0.000263901
0.000153882
0.000105696
6.69775e-05
4.46029e-05
2.86697e-05
1.75421e-05
1.05314e-05
8.3152e-06
4.52443e-06
2.94869e-06
1.73177e-06
9.70876e-07
5.62944e-07
2.99138e-07
1.82241e-07
1.08023e-07
5.05628e-08
2.77736e-08
1.3675e-08
7.66481e-09
4.04206e-09
1.92116e-09
9.45822e-10
6.80859e-10
2.89493e-10
1.72867e-10
8.8439e-11
4.50463e-11
2.60182e-11
1.04345e-11
4.07624e-12
2.69132e-12
1.12191e-12
4.70876e-13
1.42164e-13
9.96473e-14
3.23713e-14
5.55332e-15
7.81879e-15
7.066e-15
2.52358e-15
5.5313e-17
-1.4754e-15
-1.18447e-06
-1.32373e-14
6.13627e-26
-1.00286e-06
1.63674e-06
-2.01728e-07
-4.96946e-06
1.23238e-05
3.34181e-06
-0.00013229
-0.0003154
-5.78372e-07
-1.81786e-07
-7.54145e-07
-0.000150388
-9.80945e-07
-9.36638e-09
1.17749e-07
-4.02934e-35
-7.20404e-07
-7.0662e-07
-7.39337e-07
-7.3543e-07
-8.29654e-07
-1.10347e-06
-1.4763e-08
1.67418e-07
2.13101e-07
1.74655e-07
-1.95514e-27
-4.42003e-28
0.000941927
-2.36583e-05
6.1802e-24
1.07828e-24
-8.21595e-07
-3.76555e-06
-2.30009e-06
-1.92507e-06
-1.79601e-06
6.87282e-07
7.15298e-07
3.1847e-06
3.94448e-06
1.00922e-06
5.7596e-06
-2.96256e-06
3.22478e-06
-5.83906e-06
1.21844e-06
-1.22859e-06
2.74034e-06
1.03291e-05
1.35988e-05
1.61814e-05
2.78827e-05
1.02484e-05
4.10126e-05
-2.52176e-05
3.83072e-05
-9.77209e-05
8.94086e-06
-0.00019475
-5.40336e-05
-0.000296967
-0.000136863
-0.000343606
-0.000212034
-0.000215127
-0.000315326
0.000176142
-0.000368324
0.000710185
-0.000200482
0.00158225
-3.52632e-05
0.00274993
0.000339555
0.00412617
0.000739778
0.00567246
0.00117442
0.00739598
0.00156193
0.00884898
0.00197143
0.0102375
0.0020429
0.0112675
0.00178649
0.0115391
0.00171253
0.0111951
0.000568322
0.0106377
-0.00124002
0.00996303
-0.00243614
0.00893608
-0.00425213
0.00746209
-0.0058668
0.0047274
-0.00741035
0.00259905
-0.0104013
-0.000934552
-0.0115542
-0.00457116
-0.0141112
-0.00764003
-0.0164088
-0.0113616
-0.0174215
-0.014673
-0.019836
-0.0171497
-0.0208465
-0.0204983
-0.0213561
-0.0242338
-0.0222662
-0.0272399
-0.0228808
-0.0300008
-0.0230374
-0.0327675
-0.0231354
-0.0346878
-0.0228104
-0.0354326
-0.0210824
-0.0363075
-0.0206349
-0.0356758
-0.0181994
-0.035147
-0.0150679
-0.0344899
-0.0135737
-0.0322575
-0.0116051
-0.0303171
-0.00734134
-0.0277184
-0.00597509
-0.024917
-0.00285163
-0.0211908
-0.000204915
-0.018683
0.00302701
-0.015693
0.00472331
-0.0121964
0.00647219
-0.0107895
0.00940892
-0.00771945
0.00833971
-0.00498697
0.0102159
-0.00418136
0.0118175
-0.00293113
0.0107309
-0.000994023
0.0105298
-0.000800077
0.011472
0.000702326
0.00979814
0.00175302
0.00998658
0.00191903
0.00995428
0.00261728
0.00867546
0.0022874
0.00885719
0.00163048
0.00748742
0.00174672
0.00606406
0.00186353
0.00563401
0.00196526
0.00509006
0.00167895
0.00476717
0.00154166
0.00395156
0.00154145
0.00342833
0.00119884
0.00314196
0.00119495
0.00249149
0.00111141
0.00221762
0.000928557
0.00195705
0.000857806
0.00157287
0.000674505
0.00142987
0.000490461
0.00112016
0.000429769
0.000854248
0.00037777
0.000731429
0.000333766
0.000612409
0.000268711
0.000521926
0.000227379
0.000416451
0.000202447
0.000349582
0.000149172
0.000296526
0.000131574
0.000222928
0.0001104
0.000185756
8.15488e-05
0.000154929
6.54304e-05
0.000115949
5.57914e-05
9.24465e-05
4.165e-05
7.65832e-05
3.43573e-05
5.7621e-05
2.82963e-05
4.69828e-05
2.33551e-05
3.76123e-05
1.78792e-05
3.0551e-05
1.43454e-05
2.33327e-05
1.1959e-05
1.87989e-05
8.57138e-06
1.52358e-05
7.1203e-06
1.10282e-05
5.66831e-06
8.78526e-06
4.0567e-06
7.02263e-06
3.14356e-06
5.08513e-06
2.54605e-06
3.92708e-06
1.79413e-06
3.12862e-06
1.4708e-06
2.25335e-06
1.15883e-06
1.771e-06
8.5756e-07
1.38897e-06
6.80668e-07
1.01217e-06
4.81474e-07
8.16296e-07
3.26946e-07
5.78139e-07
2.55722e-07
4.0383e-07
1.99854e-07
3.13929e-07
1.5703e-07
2.40309e-07
1.11674e-07