/*--------------------------------*- C++ -*----------------------------------*\
  =========                 |
  \\      /  F ield         | OpenFOAM: The Open Source CFD Toolbox
   \\    /   O peration     | Website:  https://openfoam.org
    \\  /    A nd           | Version:  7
     \\/     M anipulation  |
\*---------------------------------------------------------------------------*/
FoamFile
{
    version     2.0;
    format      ascii;
    class       surfaceScalarField;
    location    "0.98";
    object      phi;
}
// * * * * * * * * * * * * * * * * * * * * * * * * * * * * * * * * * * * * * //

dimensions      [0 3 -1 0 0 0 0];

internalField   nonuniform List<scalar> 
68016
(
0.001
0.00036922
0.00063078
0.00052257
0.00047743
0.00089179
0.00048659
0.00051341
0.00096402
0.0004883
0.0005117
0.00100171
0.00049522
0.00050478
0.00100692
0.00047617
0.00052383
0.00098095
0.000465
0.000535
0.00098883
0.00051432
0.00048568
0.00104932
0.00050463
0.00049537
0.00099031
0.0004863
0.0005137
0.00098167
0.0005008
0.0004992
0.0010145
0.0005154
0.0004846
0.0010146
0.0005057
0.0004943
0.0009903
0.000495
0.000505
0.0009893
0.0004801
0.0005199
0.0009851
0.0004716
0.0005284
0.0009915
0.0004903
0.0005097
0.0010187
0.0005299
0.0004701
0.0010396
0.0005166
0.0004834
0.0009867
0.0004996
0.0005004
0.000983
0.0005074
0.0004926
0.0010078
0.0004929
0.0005071
0.0009855
0.0005003
0.0004997
0.0010074
0.0005077
0.0004923
0.0010074
0.0004923
0.0005077
0.0009846
0.0004962
0.0005038
0.0010039
0.0005006
0.0004994
0.0010044
0.0005035
0.0004965
0.0010029
0.0004865
0.0005135
0.000983
0.0004992
0.0005008
0.0010127
0.0005073
0.0004927
0.0010081
0.0004728
0.0005272
0.0009655
0.0004767
0.0005233
0.0010039
0.0005229
0.0004771
0.0010462
0.0005069
0.0004931
0.000984
0.0004733
0.0005267
0.0009664
0.0005247
0.0004753
0.0010514
0.0005147
0.0004853
0.00099
0.0004989
0.0005011
0.0009842
0.0005072
0.0004928
0.0010083
0.0004928
0.0005072
0.0009856
0.0004999
0.0005001
0.0010071
0.0005073
0.0004927
0.0010074
0.0004926
0.0005074
0.0009853
0.0004973
0.0005027
0.0010047
0.0005029
0.0004971
0.0010056
0.0005075
0.0004925
0.0010046
0.0004919
0.0005081
0.0009844
0.0004986
0.0005014
0.0010067
0.0005048
0.0004952
0.0010062
0.0004857
0.0005143
0.0009809
0.0004741
0.0005259
0.0009884
0.0005217
0.0004783
0.0010476
0.0005091
0.0004909
0.0009874
0.00049
0.00051
0.0009809
0.0005041
0.0004959
0.0010141
0.0005176
0.0004824
0.0010135
0.0005079
0.0004921
0.0009903
0.0004989
0.0005011
0.000991
0.0004893
0.0005107
0.0009904
0.0004983
0.0005017
0.001009
0.0005071
0.0004929
0.0010088
0.0004943
0.0005057
0.0009872
0.0005044
0.0004956
0.0010101
0.0004951
0.0005049
0.0009907
0.0005058
0.0004942
0.0010107
0.0004924
0.0005076
0.0009866
0.0005002
0.0004998
0.0010078
0.0005076
0.0004924
0.0010074
0.0004922
0.0005078
0.0009846
0.0004961
0.0005039
0.0010039
0.0005005
0.0004995
0.0010044
0.0005031
0.0004969
0.0010026
0.0004857
0.0005143
0.0009826
0.0004981
0.0005019
0.0010124
0.0005073
0.0004927
0.0010092
0.000481
0.000519
0.0009737
0.0004824
0.0005176
0.0010014
0.0005241
0.0004759
0.0010417
0.0005068
0.0004932
0.0009827
0.0004737
0.0005263
0.0009669
0.0005249
0.0004751
0.0010512
0.0005147
0.0004853
0.0009898
0.0004989
0.0005011
0.0009842
0.000507
0.000493
0.0010081
0.0004924
0.0005076
0.0009854
0.0004991
0.0005009
0.0010067
0.0005059
0.0004941
0.0010068
0.0004898
0.0005102
0.0009839
0.0004921
0.0005079
0.0010023
0.0004933
0.0005067
0.0010012
0.0004897
0.0005103
0.0009964
0.0004611
0.0005389
0.0009714
0.0004456
0.0005544
0.0009845
0.0004186
0.0005814
0.000973
0.0003642
0.0006358
0.0009456
0.0003082
0.0006918
0.000944
0.0002608
0.0007392
0.0009526
0.0008615
0.0001385
0.0008615
0.0008777
0.000837296
-0.000837296
-0.000846647
0.000846647
0.000850317
-0.000850317
0.000855974
-0.000855974
0.000863579
-0.000863579
0.000862313
-0.000862313
0.000859979
-0.000859979
0.000851123
-0.000851123
0.000852291
-0.000852291
0.000855805
-0.000855805
0.000854953
-0.000854953
0.000851422
-0.000851422
0.000863274
-0.000863274
0.000855716
-0.000855716
0.000869861
-0.000869861
0.000859706
-0.000859706
0.000859315
-0.000859315
0.000845644
-0.000845644
0.000845491
-0.000845491
0.000838775
-0.000838775
0.0008547
-0.0008547
0.000850344
-0.000850344
0.00085349
-0.00085349
0.000858456
-0.000858456
0.000848873
-0.000848873
0.000863916
-0.000863916
0.000847787
-0.000847787
0.000846099
-0.000846099
0.000865749
-0.000865749
0.000855092
-0.000855092
0.000867179
-0.000867179
0.000860858
-0.000860858
0.000863743
-0.000863743
0.000849644
-0.000849644
0.000852478
-0.000852478
0.000841859
-0.000841859
0.000853594
-0.000853594
0.000844156
-0.000844156
0.000849474
-0.000849474
0.000859738
-0.000859738
0.000853747
-0.000853747
0.00086643
-0.00086643
0.000848492
-0.000848492
0.00084801
-0.00084801
0.00086499
-0.00086499
0.000851833
-0.000851833
0.000872848
-0.000872848
0.000858211
-0.000858211
0.000862197
-0.000862197
0.000848655
-0.000848655
0.000852223
-0.000852223
0.000846389
-0.000846389
0.000867219
-0.000867219
0.000858203
-0.000858203
0.000861054
-0.000861054
0.000864892
-0.000864892
0.000855195
-0.000855195
0.00086679
-0.00086679
0.000849317
-0.000849317
0.000844709
-0.000844709
0.000863548
-0.000863548
0.000855465
-0.000855465
0.000849832
-0.000849832
0.000859249
-0.000859249
0.000847512
-0.000847512
0.000863194
-0.000863194
0.000855697
-0.000855697
0.000845673
-0.000845673
0.000866677
-0.000866677
0.000861255
-0.000861255
0.000862407
-0.000862407
0.000863668
-0.000863668
0.000855925
-0.000855925
0.000869006
-0.000869006
0.000850331
-0.000850331
0.000844403
-0.000844403
0.000858394
-0.000858394
0.000864865
-0.000864865
0.000853671
-0.000853671
0.000854392
-0.000854392
0.000848068
-0.000848068
0.000865892
-0.000865892
0.000856969
-0.000856969
0.00086363
-0.00086363
0.000867376
-0.000867376
0.000856613
-0.000856613
0.000873334
-0.000873334
0.000850281
-0.000850281
0.000849012
-0.000849012
0.000866445
-0.000866445
0.00085397
-0.00085397
0.000873793
-0.000873793
0.000858424
-0.000858424
0.000861356
-0.000861356
0.000841279
-0.000841279
0.000847475
-0.000847475
0.000851018
-0.000851018
0.000879763
-0.000879763
0.000857861
-0.000857861
-0.001
-0.0007732
0.0007732
8.83e-05
-0.000733
0.000733
4.02e-05
-0.0007286
0.0007286
4.4e-06
-0.0007024
0.0007024
2.62e-05
-0.0007311
0.0007311
-2.87e-05
-0.000759
0.000759
-2.79e-05
-0.000733
0.000733
2.6e-05
-0.000718
0.000718
1.5e-05
-0.000722
0.000722
-4e-06
-0.0007402
0.0007402
-1.82e-05
-0.0007354
0.0007354
4.8e-06
-0.0007214
0.0007214
1.4e-05
-0.0007281
0.0007281
-6.7e-06
-0.0007276
0.0007276
5e-07
-0.0007142
0.0007142
1.34e-05
-0.0007077
0.0007077
6.5e-06
-0.0007155
0.0007155
-7.8e-06
-0.0007391
0.0007391
-2.36e-05
-0.0007572
0.0007572
-1.81e-05
-0.0007285
0.0007285
2.87e-05
-0.0007158
0.0007158
1.27e-05
-0.0007235
0.0007235
-7.7e-06
-0.0007426
0.0007426
-1.91e-05
-0.0007375
0.0007375
5.1e-06
-0.0007217
0.0007217
1.58e-05
-0.0007293
0.0007293
-7.6e-06
-0.0007319
0.0007319
-2.6e-06
-0.0007175
0.0007175
1.44e-05
-0.0007304
0.0007304
-1.29e-05
-0.0007326
0.0007326
-2.2e-06
-0.0007287
0.0007287
3.9e-06
-0.0007282
0.0007282
5e-07
-0.0007201
0.0007201
8.1e-06
-0.0007135
0.0007135
6.6e-06
-0.0007226
0.0007226
-9.1e-06
-0.0007421
0.0007421
-1.95e-05
-0.0007369
0.0007369
5.2e-06
-0.0007221
0.0007221
1.48e-05
-0.0007297
0.0007297
-7.6e-06
-0.0007368
0.0007368
-7.1e-06
-0.0007419
0.0007419
-5.1e-06
-0.0007286
0.0007286
1.33e-05
-0.0007289
0.0007289
-3e-07
-0.0007156
0.0007156
1.33e-05
-0.0007311
0.0007311
-1.55e-05
-0.0007406
0.0007406
-9.5e-06
-0.0007181
0.0007181
2.25e-05
-0.0007131
0.0007131
5e-06
-0.0007397
0.0007397
-2.66e-05
-0.000737
0.000737
2.7e-06
-0.0007232
0.0007232
1.38e-05
-0.0007301
0.0007301
-6.9e-06
-0.0007362
0.0007362
-6.1e-06
-0.0007397
0.0007397
-3.5e-06
-0.0007157
0.0007157
2.4e-05
-0.0007383
0.0007383
-2.26e-05
-0.000753
0.000753
-1.47e-05
-0.0007341
0.0007341
1.89e-05
-0.0007343
0.0007343
-2e-07
-0.0007486
0.0007486
-1.43e-05
-0.0007462
0.0007462
2.4e-06
-0.0007344
0.0007344
1.18e-05
-0.0007293
0.0007293
5.1e-06
-0.0007244
0.0007244
4.9e-06
-0.0007259
0.0007259
-1.5e-06
-0.0007148
0.0007148
1.11e-05
-0.0007228
0.0007228
-8e-06
-0.0007423
0.0007423
-1.95e-05
-0.0007372
0.0007372
5.1e-06
-0.0007213
0.0007213
1.59e-05
-0.000729
0.000729
-7.7e-06
-0.000734
0.000734
-5e-06
-0.0007401
0.0007401
-6.1e-06
-0.0007169
0.0007169
2.32e-05
-0.0007382
0.0007382
-2.13e-05
-0.0007309
0.0007309
7.3e-06
-0.0007295
0.0007295
1.4e-06
-0.0007393
0.0007393
-9.8e-06
-0.0007182
0.0007182
2.11e-05
-0.0007139
0.0007139
4.3e-06
-0.0007401
0.0007401
-2.62e-05
-0.0007357
0.0007357
4.4e-06
-0.0007217
0.0007217
1.4e-05
-0.0007293
0.0007293
-7.6e-06
-0.0007358
0.0007358
-6.5e-06
-0.000739
0.000739
-3.2e-06
-0.0007133
0.0007133
2.57e-05
-0.0007362
0.0007362
-2.29e-05
-0.0007244
0.0007244
1.18e-05
-0.0007307
0.0007307
-6.3e-06
-0.0007278
0.0007278
2.9e-06
-0.0007152
0.0007152
1.26e-05
-0.0007088
0.0007088
6.4e-06
-0.0007158
0.0007158
-7e-06
-0.0007396
0.0007396
-2.38e-05
-0.000758
0.000758
-1.84e-05
-0.0007287
0.0007287
2.93e-05
-0.0007159
0.0007159
1.28e-05
-0.0007239
0.0007239
-8e-06
-0.000743
0.000743
-1.91e-05
-0.0007374
0.0007374
5.6e-06
-0.000721
0.000721
1.64e-05
-0.0007283
0.0007283
-7.3e-06
-0.0007292
0.0007292
-9e-07
-0.0007087
0.0007087
2.05e-05
-0.0007045
0.0007045
4.2e-06
-0.000717
0.000717
-1.25e-05
-0.0007253
0.0007253
-8.3e-06
-0.0007194
0.0007194
5.9e-06
-0.0007199
0.0007199
-5e-07
-0.0007133
0.0007133
6.6e-06
-0.0007223
0.0007223
-9e-06
-0.0007419
0.0007419
-1.96e-05
-0.0007368
0.0007368
5.1e-06
-0.0007221
0.0007221
1.47e-05
-0.0007297
0.0007297
-7.6e-06
-0.0007368
0.0007368
-7.1e-06
-0.0007417
0.0007417
-4.9e-06
-0.0007289
0.0007289
1.28e-05
-0.0007336
0.0007336
-4.7e-06
-0.0007371
0.0007371
-3.5e-06
-0.0007307
0.0007307
6.4e-06
-0.0007401
0.0007401
-9.4e-06
-0.0007177
0.0007177
2.24e-05
-0.0007129
0.0007129
4.8e-06
-0.0007394
0.0007394
-2.65e-05
-0.0007363
0.0007363
3.1e-06
-0.0007225
0.0007225
1.38e-05
-0.0007296
0.0007296
-7.1e-06
-0.0007362
0.0007362
-6.6e-06
-0.0007412
0.0007412
-5e-06
-0.0007293
0.0007293
1.19e-05
-0.0007328
0.0007328
-3.5e-06
-0.000718
0.000718
1.48e-05
-0.0007223
0.0007223
-4.3e-06
-0.0007261
0.0007261
-3.8e-06
-0.000715
0.000715
1.11e-05
-0.0007191
0.0007191
-4.1e-06
-0.0007254
0.0007254
-6.3e-06
-0.0007258
0.0007258
-4e-07
-0.000743
0.000743
-1.72e-05
-0.0007246
0.0007246
1.84e-05
-0.0007149
0.0007149
9.7e-06
-0.0007236
0.0007236
-8.7e-06
-0.0007431
0.0007431
-1.95e-05
-0.0007378
0.0007378
5.3e-06
-0.0007216
0.0007216
1.62e-05
-0.0007292
0.0007292
-7.6e-06
-0.0007365
0.0007365
-7.3e-06
-0.0007441
0.0007441
-7.6e-06
-0.0007317
0.0007317
1.24e-05
-0.0007284
0.0007284
3.3e-06
-0.0007231
0.0007231
5.3e-06
-0.0007139
0.0007139
9.2e-06
-0.0007269
0.0007269
-1.3e-05
-0.0007131
0.0007131
1.38e-05
-0.0007225
0.0007225
-9.4e-06
-0.0007421
0.0007421
-1.96e-05
-0.0007369
0.0007369
5.2e-06
-0.000722
0.000722
1.49e-05
-0.0007294
0.0007294
-7.4e-06
-0.0007362
0.0007362
-6.8e-06
-0.0007396
0.0007396
-3.4e-06
-0.0007145
0.0007145
2.51e-05
-0.0007342
0.0007342
-1.97e-05
-0.0007224
0.0007224
1.18e-05
-0.0007298
0.0007298
-7.4e-06
-0.0007395
0.0007395
-9.7e-06
-0.0007169
0.0007169
2.26e-05
-0.0007126
0.0007126
4.3e-06
-0.0007397
0.0007397
-2.71e-05
-0.0007371
0.0007371
2.6e-06
-0.0007233
0.0007233
1.38e-05
-0.00073
0.00073
-6.7e-06
-0.0007359
0.0007359
-5.9e-06
-0.0007389
0.0007389
-3e-06
-0.0007129
0.0007129
2.6e-05
-0.0007343
0.0007343
-2.14e-05
-0.00072
0.00072
1.43e-05
-0.0007275
0.0007275
-7.5e-06
-0.0007294
0.0007294
-1.9e-06
-0.0007099
0.0007099
1.95e-05
-0.0007056
0.0007056
4.3e-06
-0.0007182
0.0007182
-1.26e-05
-0.0007271
0.0007271
-8.9e-06
-0.0007223
0.0007223
4.8e-06
-0.0007251
0.0007251
-2.8e-06
-0.0007167
0.0007167
8.4e-06
-0.0007244
0.0007244
-7.7e-06
-0.0007421
0.0007421
-1.77e-05
-0.0007351
0.0007351
7e-06
-0.0007185
0.0007185
1.66e-05
-0.0007287
0.0007287
-1.02e-05
-0.0007398
0.0007398
-1.11e-05
-0.0007561
0.0007561
-1.63e-05
-0.000741
0.000741
1.51e-05
-0.0007367
0.0007367
4.3e-06
-0.0007332
0.0007332
3.5e-06
-0.001
-0.00035278
-0.00064722
-0.00046947
-0.00053053
-0.0005096
-0.0004904
-0.00052491
-0.00047509
-0.00051446
-0.00048554
-0.0004751
-0.0005249
-0.0005065
-0.0004935
-0.0005073
-0.0004927
-0.0004985
-0.0005015
-0.0005163
-0.0004837
-0.0004974
-0.0005026
-0.0004932
-0.0005068
-0.0005071
-0.0004929
-0.0005026
-0.0004974
-0.000525
-0.000475
-0.0004971
-0.0005029
-0.0005132
-0.0004868
-0.0004941
-0.0005059
-0.0005016
-0.0004984
-0.0005075
-0.0004925
-0.0005088
-0.0004912
-0.0005125
-0.0004875
-0.0005128
-0.0004872
-0.0005026
-0.0004974
-0.0004971
-0.0005029
-0.0005077
-0.0004923
-0.0005067
-0.0004933
-0.0005209
-0.0004791
-0.0004999
-0.0005001
-0.0005102
-0.0004898
-0.0004898
-0.0005102
-0.0005012
-0.0004988
-0.0005079
-0.0004921
-0.0005085
-0.0004915
-0.0004928
-0.0005072
-0.0005165
-0.0004835
-0.0004973
-0.0005027
-0.0004962
-0.0005038
-0.000508
-0.000492
-0.0005072
-0.0004928
-0.0005134
-0.0004866
-0.0005132
-0.0004868
-0.0005021
-0.0004979
-0.0004953
-0.0005047
-0.0005036
-0.0004964
-0.0005081
-0.0004919
-0.0005124
-0.0004876
-0.0004983
-0.0005017
-0.000581
-0.000419
0.0008603
-0.0008603
0
-0.0008804
0.0008804
0
-2.01e-05
-0.0008939
0.0008939
0
-1.35e-05
-0.0009148
0.0009148
0
-2.09e-05
-0.0009105
0.0009105
0
4.3e-06
-0.0009074
0.0009074
0
3.1e-06
-0.000899
0.000899
0
8.4e-06
-0.0009062
0.0009062
0
-7.2e-06
-0.0008895
0.0008895
0
1.67e-05
-0.000926
0.000926
0
-3.65e-05
-0.0009059
0.0009059
0
2.01e-05
-0.0008887
0.0008887
0
1.72e-05
-0.0008918
0.0008918
0
-3.1e-06
-0.0008914
0.0008914
0
4e-07
-0.0008984
0.0008984
0
-7e-06
-0.0008903
0.0008903
0
8.1e-06
-0.0008903
0.0008903
0
0
-0.0008944
0.0008944
0
-4.1e-06
-0.0008718
0.0008718
0
2.26e-05
-0.0008387
0.0008387
0
3.31e-05
0.0006553
0.0003447
-0.001
0.0004187
0.0005813
-0.001
0.001074
0.0004378
0.0005622
-0.001
0.0010191
0.0004651
0.0005349
-0.001
0.0010273
0.000484
0.000516
-0.001
0.0010189
0.0004786
0.0005214
-0.001
0.0009946
0.000489
0.000511
-0.001
0.0010104
0.0004969
0.0005031
-0.001
0.0010079
0.0005045
0.0004955
-0.001
0.0010076
0.00049
0.00051
-0.001
0.0009855
0.0004996
0.0005004
-0.001
0.0010096
0.0005054
0.0004946
-0.001
0.0010058
0.0004866
0.0005134
-0.001
0.0009812
0.0004803
0.0005197
-0.001
0.0009937
0.0005269
0.0004731
-0.001
0.0010466
0.0005137
0.0004863
-0.001
0.0009868
0.0005183
0.0004817
-0.001
0.0010046
0.0005045
0.0004955
-0.001
0.0009862
0.0005115
0.0004885
-0.001
0.001007
0.0005204
0.0004796
-0.001
0.0010089
-0.0008351
0.0008351
0
0.0008435
-0.0008435
0
0.0008833
-0.0008833
0
0.0008684
-0.0008684
0
0.0008674
-0.0008674
0
0.0008569
-0.0008569
0
0.0008552
-0.0008552
0
0.0008487
-0.0008487
0
0.0008815
-0.0008815
0
0.0008159
-0.0008159
0
-0.0004712
-0.0005288
0.001
-0.0005172
-0.0004828
0.001
-0.0004999
-0.0005001
0.001
-0.0005201
-0.0004799
0.001
-0.0004927
-0.0005073
0.001
-0.0004921
-0.0005079
0.001
-0.0004997
-0.0005003
0.001
-0.0004772
-0.0005228
0.001
-0.0004373
-0.0005627
0.001
-0.0003997
-0.0006003
0.001
-0.00135278
0.000859967
-0.000859967
0.000844776
-0.000844776
-0.000870959
0.000870959
-0.000843056
0.000843056
-0.000855296
0.000855296
-0.000865102
0.000865102
-0.000842276
0.000842276
-0.000862307
0.000862307
-0.000834153
0.000834153
-0.000861175
0.000861175
-0.000841775
0.000841775
-0.000849206
0.000849206
-0.000841356
0.000841356
-0.000885836
0.000885836
-0.000847663
0.000847663
-0.00086105
0.00086105
-0.000847686
0.000847686
-0.000848342
0.000848342
-0.000852953
0.000852953
-0.000829317
0.000829317
-0.000848909
0.000848909
-0.00082847
0.00082847
-0.00084539
0.00084539
-0.000843285
0.000843285
-0.000847657
0.000847657
-0.000841457
0.000841457
-0.000848192
0.000848192
-0.000844728
0.000844728
-0.00084482
0.00084482
-0.000855039
0.000855039
-0.000847119
0.000847119
-0.000863974
0.000863974
-0.000853157
0.000853157
-0.000852037
0.000852037
-0.000858671
0.000858671
-0.00083093
0.00083093
-0.000842804
0.000842804
-0.000826283
0.000826283
-0.000858825
0.000858825
-0.000847438
0.000847438
-0.000852327
0.000852327
-0.000842133
0.000842133
-0.000849508
0.000849508
-0.000845316
0.000845316
-0.000842454
0.000842454
-0.000853628
0.000853628
-0.00085851
0.00085851
-0.000861227
0.000861227
-0.000852103
0.000852103
-0.000851151
0.000851151
-0.000860034
0.000860034
-0.000840842
0.000840842
-0.000867525
0.000867525
-0.000838271
0.000838271
-0.00086751
0.00086751
-0.000850313
0.000850313
-0.000852982
0.000852982
-0.000842465
0.000842465
-0.000850731
0.000850731
-0.000840498
0.000840498
-0.000864517
0.000864517
-0.000849869
0.000849869
-0.000853793
0.000853793
-0.000867256
0.000867256
-0.000839461
0.000839461
-0.000852913
0.000852913
-0.000858477
0.000858477
-0.000840536
0.000840536
-0.000869198
0.000869198
-0.000838173
0.000838173
-0.000869415
0.000869415
-0.000847441
0.000847441
-0.000855225
0.000855225
-0.000844041
0.000844041
-0.000851117
0.000851117
-0.000841016
0.000841016
-0.000863509
0.000863509
-0.000855064
0.000855064
-0.000855704
0.000855704
-0.000861825
0.000861825
-0.00084121
0.00084121
-0.000854495
0.000854495
-0.000864607
0.000864607
-0.000854184
0.000854184
-0.000851924
0.000851924
-0.000857305
0.000857305
-0.000846405
0.000846405
-0.000850683
0.000850683
-0.000846413
0.000846413
-0.00084434
0.00084434
-0.000855383
0.000855383
-0.000858804
0.000858804
-0.000861401
0.000861401
-0.00084656
0.00084656
-0.000845823
0.000845823
-0.000858423
0.000858423
-0.000852875
0.000852875
-0.000858025
0.000858025
1.332e-05
-0.000815394
0.000815394
-2.2671e-05
0.00041042
-0.00105764
-0.00058958
-0.0002668
-0.00105905
-0.00048017
-0.00051983
-0.00047636
-0.00052364
-0.00050799
-0.00049201
-0.000503
-0.000497
-0.0005138
-0.0004862
-0.0005069
-0.0004931
-0.0004966
-0.0005034
-0.0005057
-0.0004943
-0.000516
-0.000484
-0.0005068
-0.0004932
-0.0005112
-0.0004888
-0.0004966
-0.0005034
-0.0004985
-0.0005015
-0.0005143
-0.0004857
-0.0004967
-0.0005033
-0.000517
-0.000483
-0.0005118
-0.0004882
-0.0004875
-0.0005125
-0.0005121
-0.0004879
-0.0004951
-0.0005049
-0.0005201
-0.0004799
-0.0005146
-0.0004854
-0.0005009
-0.0004991
-0.0005088
-0.0004912
-0.0005051
-0.0004949
-0.0005019
-0.0004981
-0.0005128
-0.0004872
-0.0004965
-0.0005035
-0.0005215
-0.0004785
-0.0005132
-0.0004868
-0.0004876
-0.0005124
-0.0005115
-0.0004885
-0.0005007
-0.0004993
-0.0004878
-0.0005122
-0.0005156
-0.0004844
-0.0004998
-0.0005002
-0.0005092
-0.0004908
-0.000506
-0.000494
-0.000494
-0.000506
-0.000519
-0.000481
-0.0005137
-0.0004863
-0.0005034
-0.0004966
-0.0005103
-0.0004897
-0.0004857
-0.0005143
-0.00051
-0.00049
-0.0004971
-0.0005029
-0.0004731
-0.0005269
-0.0006657
-0.0001694
-0.0003572
-0.0006428
0.0007248
0.0001139
0.0010695
-0.000514
0.0009936
0.0008488
-0.0008488
0
-0.0008487
0.0008487
0
-0.000885
0.000885
0
-0.0008449
0.0008449
0
-0.0008737
0.0008737
0
-0.0008807
0.0008807
0
-0.0008671
0.0008671
0
-0.0008733
0.0008733
0
-0.0008575
0.0008575
0
0.0005791
-0.0010503
-0.0007586
0.0007586
0
-0.000491
-0.000509
0.001
-0.0004931
-0.0005069
0.001
-0.0004822
-0.0005178
0.001
-0.0005165
-0.0004835
0.001
-0.0005048
-0.0004952
0.001
-0.0005132
-0.0004868
0.001
-0.0005235
-0.0004765
0.001
-0.0005411
-0.0004589
0.001
-0.0005943
-0.0004057
0.001
-0.0006209
-0.0003791
0.001
0.000162704
-2.0642e-05
1.2918e-05
8.283e-06
-2.789e-06
1.7703e-05
-1.1184e-05
1.8138e-05
-5.37e-06
1.3178e-05
2.216e-06
2.1918e-05
-3.012e-05
2.2198e-05
-1.344e-06
1.1629e-05
-2.698e-06
-7.462e-06
9.458e-06
5.791e-06
2.1874e-05
8.1e-06
1.5171e-05
1.216e-06
2.2459e-05
-4.05e-07
1.371e-06
2.0929e-05
5.3e-08
2.006e-05
-3.116e-06
1.0586e-05
-2.393e-06
-6.193e-06
1.0929e-05
1.079e-05
1.7873e-05
-9.351e-06
1.23e-05
1.42e-06
2.4297e-05
-1.016e-06
2.694e-06
2.2536e-05
-1.795e-06
1.4338e-05
-3.016e-06
1.0094e-05
-2.496e-06
-7.811e-06
5.547e-06
-3.06e-07
1.9932e-05
-6.456e-06
1.4579e-05
2.213e-06
2.4325e-05
-1.414e-06
4.211e-06
-9.69e-07
5.596e-06
-3.961e-06
-8.007e-06
8.051e-06
1.0281e-05
-2.78e-06
5.137e-06
-2.521e-06
2.3082e-05
-7.008e-06
1.6227e-05
7e-07
2.4965e-05
-7.86e-07
3.387e-06
-5.115e-06
9.801e-06
-2.033e-06
-7.433e-06
6.858e-06
1.1397e-05
-7.638e-06
9.446e-06
1.5452e-05
-6.92e-07
2.6929e-05
-4.02e-07
2.599e-06
2.2105e-05
-1.413e-06
1.4989e-05
-2.977e-06
1.4796e-05
-4.544e-06
-1.0948e-05
-1.857e-06
2.1738e-05
4.2467e-05
-0.00098596
-0.0010329
-0.00101746
-0.0009889
-0.0010134
-0.0010039
-0.0010042
-0.0010323
-0.0010042
-0.0010044
-0.0010037
-0.0010011
-0.0010393
-0.0009938
-0.0010302
-0.0010059
-0.0009891
-0.0010196
-0.0010039
-0.0010326
-0.0010274
-0.0010035
-0.0010059
-0.0010128
-0.0010086
-0.0010337
-0.0009964
-0.0010317
-0.001003
-0.0009888
-0.0010194
-0.0010092
-0.0009806
-0.0010321
-0.0009971
-0.0010054
-0.001014
-0.0010012
-0.0010324
-0.0010269
-0.0010055
-0.0010056
-0.0009893
-0.0010181
-0.0010095
-0.0009714
-0.0009382
-0.0002812
-5.2e-06
-1.7e-06
2.35e-05
-6.3e-06
-2.38e-05
-1.19e-05
-2.46e-05
2.4e-05
5.73e-05
-0.0010198
-0.0010103
-0.0009821
-0.0010366
-0.0009975
-0.0010053
-0.0010232
-0.0010183
-0.0010316
-0.0010206
-5.541e-06
1.4985e-05
-2.0523e-05
-7.017e-06
5.123e-06
-8.847e-06
1.0016e-05
-2.1652e-05
6.222e-06
-9.647e-06
-1.4068e-05
-1.436e-05
1.5975e-05
-1.2043e-05
1.735e-06
2.042e-06
2.851e-06
1.4178e-05
-2.5383e-05
-1.435e-06
-2.502e-05
-1.3066e-05
-5.588e-06
-1.6259e-05
-6.33e-06
2.093e-06
-2.1021e-05
-1.0272e-05
-1.214e-05
-1.3739e-05
2.31e-07
3.513e-06
-4.41e-07
1.6812e-05
-2.2664e-05
-1.352e-06
-2.3191e-05
-9.13e-07
-6.309e-06
-1.4103e-05
-6.359e-06
1.498e-06
-1.9674e-05
-9.379e-06
-1.922e-05
2.99e-07
-9.7e-07
3.448e-06
-1.072e-06
1.3645e-05
-2.6377e-05
9.322e-06
-2.2783e-05
2.618e-06
-4.882e-06
-1.3808e-05
-6.852e-06
6.022e-06
-2.305e-05
9.052e-06
3.7e-08
-5.456e-06
1.9744e-05
-2.3733e-05
-2.784e-06
1.2804e-05
-2.6141e-05
7.943e-06
-2.4234e-05
5.747e-06
-8.484e-06
-1.3781e-05
-6.29e-06
6.714e-06
-1.7378e-05
-1.356e-06
1.393e-06
1.312e-06
1.3757e-05
-2.4682e-05
-2.474e-06
9.77e-07
-1.3192e-05
-4.689e-06
-1.6029e-05
-3.876e-06
1.671e-06
-2.0032e-05
-9.63e-06
-1.841e-05
3.8e-07
4.5e-08
5.281e-06
-1.652e-06
7.405e-06
-2.6888e-05
1.64e-07
-0.0010219
-0.0009797
-0.0009858
-0.0010049
-0.000978
-0.0009866
-0.001
-0.0009817
-0.0010008
-0.0009765
-0.0009886
-0.0009901
-0.0009889
-0.0009866
-0.001005
-0.0009791
-0.0009924
-0.0009671
-0.0009828
-0.001002
-0.0009835
-0.0009882
-0.0009772
-0.0009873
-0.0009933
-0.0009887
-0.0009856
-0.0010045
-0.00098
-0.0010065
-0.0009957
-0.0009871
-0.001004
-0.0009828
-0.0009868
-0.0009926
-0.0009678
-0.0009842
-0.0010013
-0.0009861
-0.0010062
-0.0009776
-0.0010046
-0.0009459
-0.0009096
5.3e-06
-3.46e-05
1.66e-05
-2.25e-05
1.68e-05
2.55e-05
1.84e-05
-8.2e-06
4.16e-05
0.0002446
-0.0009918
-0.001007
-0.0009977
-0.0009908
-0.0010031
-0.0009871
-0.0009993
-0.0010216
-0.001006
-0.0010448
1.871e-06
-0.0010107
-0.00097755
-0.00099873
-0.00101023
-1.37e-05
0.000793484
-0.000888223
0.000867581
0.00052043
0.00044359
0.00048663
0.00051508
0.00100706
0.0004921
0.00051482
0.00100718
0.00048878
0.00049217
0.0010036
0.00048691
0.00050192
0.00097908
0.00051583
0.00053349
0.00101775
0.00048366
0.00050665
0.00101715
0.00047643
0.00050524
0.00098308
0.0004884
0.0005261
0.00099364
0.0005246
0.00049
0.0010507
0.0004961
0.0004942
0.0009861
0.0005016
0.0004877
0.0009958
0.0004902
0.0004949
0.0009779
0.0005067
0.0004848
0.0010016
0.0005034
0.0005153
0.0009882
0.0005282
0.0005114
0.0010435
0.0004772
0.0005095
0.0009886
0.0004895
0.0004935
0.000999
0.0005104
0.0004974
0.0010039
0.0004876
0.0004979
0.000985
0.0005052
0.0005022
0.0010031
0.0005036
0.0005038
0.0010058
0.0005001
0.0004845
0.0010039
0.0004981
0.0005058
0.0009826
0.0005007
0.0005037
0.0010065
0.0005035
0.0004994
0.0010072
0.0004808
0.0005022
0.0009802
0.0004895
0.0005232
0.0009917
0.0005261
0.000482
0.0010493
0.0005048
0.0004607
0.0009868
0.0005151
0.0004888
0.0009758
0.0005244
0.0005218
0.0010132
0.0004865
0.0004975
0.0010083
0.0004769
0.0004895
0.0009744
0.0005421
0.0005093
0.0010316
0.0004793
0.0005107
0.0009886
0.0004891
0.0004951
0.0009998
0.0005121
0.0004962
0.0010072
0.0004885
0.0004971
0.0009847
0.0005052
0.0005019
0.0010023
0.0005026
0.0005048
0.0010045
0.0005004
0.0004849
0.0010052
0.0004989
0.0005058
0.0009838
0.0005021
0.0005035
0.0010079
0.0005059
0.0004987
0.0010094
0.0004856
0.0004988
0.0009843
0.0005037
0.000503
0.0010025
0.0005019
0.0005043
0.0010049
0.000498
0.0004829
0.0010023
0.0004975
0.0004909
0.0009804
0.000524
0.0005236
0.0010149
0.0004867
0.0005007
0.0010103
0.0004722
0.0005087
0.0009729
0.0004966
0.0005175
0.0010053
0.0005261
0.0004874
0.0010436
0.0004967
0.0004936
0.0009841
0.0005027
0.0004883
0.0009963
0.000492
0.0004984
0.0009803
0.0005053
0.0005037
0.0010037
0.0005024
0.0005064
0.0010061
0.0005003
0.0004869
0.0010067
0.0004984
0.0005117
0.0009853
0.0004942
0.0004965
0.0010059
0.000512
0.0004987
0.0010085
0.0004884
0.0004982
0.0009871
0.0005055
0.0005023
0.0010037
0.0005035
0.0005039
0.0010058
0.0005001
0.0004845
0.001004
0.0004981
0.0005058
0.0009826
0.0005007
0.0005037
0.0010065
0.0005033
0.0004993
0.001007
0.0004803
0.0005023
0.0009796
0.0004882
0.0005242
0.0009905
0.000523
0.0004862
0.0010472
0.0004984
0.0004753
0.0009846
0.0005042
0.0004972
0.0009795
0.00052
0.0005217
0.0010172
0.0004863
0.0004964
0.001008
0.0004779
0.000489
0.0009743
0.0005423
0.0005089
0.0010313
0.0004799
0.0005099
0.0009888
0.0004902
0.000494
0.0010001
0.0005107
0.0004974
0.0010047
0.0004876
0.0004978
0.000985
0.0005046
0.0005021
0.0010024
0.0005017
0.0005051
0.0010038
0.0004985
0.0004854
0.0010036
0.0004956
0.0005067
0.000981
0.0004962
0.000505
0.0010029
0.0004951
0.0005013
0.0010001
0.0004667
0.0005047
0.000968
0.0004689
0.0005156
0.0009736
0.0004385
0.0005345
0.0009541
0.0003862
0.0005594
0.0009207
0.0003741
0.0005699
0.0009335
0.0002958
0.0006568
0.0008657
0.0006881
0.0001896
0.0007764
0.0008464
-0.00047806
-0.00053264
-0.00055005
-0.000509
-0.00102811
-0.00049035
-0.00049561
-0.000898756
0.000911674
0.000864164
-0.000855881
0.000865618
-0.000868407
-0.000856431
0.000874134
0.000846683
-0.000857867
0.000890037
-0.000871899
-0.000860775
0.000855405
-0.000865707
0.000878885
-0.000874848
0.000877064
-0.000839046
0.000860964
-0.000864884
0.000834764
-0.000873569
0.000895767
-0.000857314
0.00085597
-0.000855725
0.000867354
-0.000862256
0.000859558
-0.000849849
0.000842387
-0.000879655
0.000889113
-0.00085291
0.000858701
-0.000854426
0.0008763
-0.00086969
0.00087779
-0.000850664
0.000865835
-0.000873207
0.000874423
-0.000846764
0.000869223
-0.000855053
0.000854648
-0.000879151
0.000880522
-0.000846621
0.00086755
-0.000868158
0.000868211
-0.000874471
0.000894531
-0.000859602
0.000856486
-0.000860637
0.000871223
-0.000861776
0.000859383
-0.000864022
0.000857829
-0.000883291
0.00089422
-0.000850056
0.000860846
-0.000862164
0.000880037
-0.000854946
0.000845595
-0.000858332
0.000870632
-0.000878753
0.000880173
-0.00084452
0.000868817
-0.000855268
0.000854252
-0.00088194
0.000884634
-0.00084481
0.000867346
-0.000865287
0.000863492
-0.000863912
0.00087825
-0.000854339
0.000851323
-0.000861893
0.000871987
-0.000860085
0.000857589
-0.000865217
0.000857406
-0.000891601
0.000897148
-0.000863801
0.000863495
-0.000874897
0.000894829
-0.000866786
0.00086033
-0.000860038
0.000874617
-0.000878805
0.000881018
-0.00084448
0.000868805
-0.000857233
0.000855819
-0.000887631
0.000891842
-0.000866842
0.000865873
-0.000861915
0.000867511
-0.000867048
0.000863087
-0.000860391
0.000852384
-0.000891318
0.000899369
-0.000855586
0.000865867
-0.000854563
0.000851783
-0.000892677
0.000897814
-0.000861523
0.000859002
-0.000868015
0.000891097
-0.000869613
0.000862605
-0.000875812
0.000892039
-0.000883485
0.000884185
-0.000846354
0.000871319
-0.000857609
0.000856823
-0.000885667
0.000889054
-0.000858846
0.000853731
-0.000863765
0.000873566
-0.000870689
0.000868656
-0.000866258
0.000858825
-0.000893962
0.00090082
-0.000860198
0.000871595
-0.000865131
0.000857493
-0.00087916
0.000888606
-0.000861814
0.000877266
-0.000880207
0.000879515
-0.000852106
0.000879035
-0.000856179
0.000855777
-0.000882818
0.000885417
-0.000846665
0.00086877
-0.00086786
0.000866447
-0.000863787
0.000878776
-0.000854776
0.000851799
-0.000861114
0.00087591
-0.000858041
0.000853497
-0.000861005
0.000850057
-0.000903502
0.000901645
-0.000880627
0.000902365
0.000988816
-0.000946349
-0.0005129
-0.000509
-0.000855713
0.000869033
-0.000537386
0.00101748
-0.00104015
0.00016177
-0.0006778
0.000718
9.86e-05
-0.0006551
0.0006595
6.29e-05
-0.0006559
0.0006821
3.6e-06
-0.0006976
0.0006689
-1.55e-05
-0.0006972
0.0006693
-2.83e-05
-0.0006756
0.0007016
-6.3e-06
-0.0006844
0.0006994
1.72e-05
-0.0007065
0.0007025
-7.1e-06
-0.0006959
0.0006777
6.6e-06
-0.0006604
0.0006652
1.73e-05
-0.000677
0.000691
-1.18e-05
-0.0006961
0.0006894
-5.1e-06
-0.0006684
0.0006689
2.1e-05
-0.0006669
0.0006803
2e-06
-0.0006857
0.0006922
-5.4e-06
-0.0007013
0.0006935
-9.1e-06
-0.0007026
0.000679
-9.1e-06
-0.000686
0.0006679
-7e-06
-0.0006663
0.000695
1.6e-06
-0.0006824
0.0006951
1.26e-05
-0.000709
0.0007013
-1.39e-05
-0.0007031
0.000684
-1.8e-06
-0.0006616
0.0006667
2.24e-05
-0.0006759
0.0006917
-9.2e-06
-0.0006971
0.0006895
-5.4e-06
-0.0006673
0.0006647
2.22e-05
-0.0006671
0.0006815
-2.4e-06
-0.0007031
0.0006902
-2.16e-05
-0.0006805
0.0006783
9.7e-06
-0.0006845
0.0006884
-6.2e-06
-0.0006848
0.0006853
3.6e-06
-0.0006791
0.0006872
6.2e-06
-0.0006846
0.0006912
2.6e-06
-0.0007087
0.0006996
-1.75e-05
-0.0007029
0.0006834
-3.3e-06
-0.0006605
0.0006657
2.29e-05
-0.0006752
0.00069
-9.5e-06
-0.0007
0.0006924
-1e-05
-0.0006724
0.0006653
2e-05
-0.0006691
0.000664
-3.8e-06
-0.0006743
0.0006876
-1.03e-05
-0.0006585
0.0006582
2.91e-05
-0.0006716
0.0006849
-1.34e-05
-0.0007009
0.0006854
-1.6e-05
-0.0006789
0.0006694
6.5e-06
-0.0006606
0.0006831
8.8e-06
-0.0006879
0.0006929
-4.8e-06
-0.0007068
0.0006802
-1.39e-05
-0.0006619
0.0006646
1.83e-05
-0.0006776
0.0006914
-1.3e-05
-0.0007002
0.0006933
-8.8e-06
-0.0006712
0.0006651
2.21e-05
-0.0006676
0.0006641
-2.5e-06
-0.0006724
0.0006964
-8.3e-06
-0.0007006
0.000678
-4.2e-06
-0.0006891
0.0006744
-1.11e-05
-0.0006695
0.0006884
4.9e-06
-0.0006748
0.0006746
1.36e-05
-0.0006932
0.0006789
-1.86e-05
-0.0006785
0.0006809
4e-07
-0.0006688
0.0006806
1.21e-05
-0.0006824
0.0006875
-1.8e-06