/*--------------------------------*- C++ -*----------------------------------*\
  =========                 |
  \\      /  F ield         | OpenFOAM: The Open Source CFD Toolbox
   \\    /   O peration     | Website:  https://openfoam.org
    \\  /    A nd           | Version:  7
     \\/     M anipulation  |
\*---------------------------------------------------------------------------*/
FoamFile
{
    version     2.0;
    format      ascii;
    class       volScalarField;
    location    "0.14";
    object      T;
}
// * * * * * * * * * * * * * * * * * * * * * * * * * * * * * * * * * * * * * //

dimensions      [0 0 0 1 0 0 0];

internalField   nonuniform List<scalar> 
45544
(
0
0
0
0
0
0
0
0
0
0
0
0
0
0
0
0
0
0
0
0
0
0
0
0
0
0
0
0
0
0
0
0
0
0
0
0
0
0
0
0
0
0
0
0
0
0
0
0
0
0
0
0
0
0
0
0
0
0
0
0
0
0
0
0
0
0
0
0
0
0
0
0
0
0
0
0
0
0
0
0
0
0
0
0
0
0
0
0
0
0
0
0
0
0
0
0
0
0
0
0
0
0
0
0
0
0
0
0
0
0
0
0
0
0
0
0
0
0
0
0
0
0
0
0
0
0
0
0
0
0
0
0
0
0
0
0
0
0
0
0
0
0
0
0
0
0
0
0
0
0
0
0
0
0
0
0
0
0
0
0
0
0
0
0
0
0
0
0
0
0
0
0
0
0
0
0
0
0
0
0
0
0
0
0
0
0
0
0
0
0
0
0
0
0
0
0
0
0
0
0
0
0
0
0
0
0
0
0
0
0
0
0
0
0
2.70545e-47
2.38746e-42
-4.04621e-40
-2.56032e-37
-1.54779e-36
-5.69095e-36
-2.9977e-36
-6.25986e-33
-5.33161e-33
-4.64288e-33
-8.29705e-33
-4.21508e-33
-2.55366e-32
2.15865e-30
8.80022e-30
3.47765e-29
6.00099e-29
1.19071e-28
6.13219e-28
6.71489e-27
1.70061e-26
3.52623e-26
2.38309e-26
3.825e-26
2.60062e-26
2.68468e-26
2.57819e-26
1.765e-26
1.11055e-26
1.03506e-26
6.55296e-27
4.60792e-27
2.32185e-27
1.20814e-27
6.22621e-28
3.44107e-28
1.89753e-28
1.11009e-28
5.20411e-29
2.53995e-29
1.15783e-29
5.36818e-30
2.35148e-30
1.06364e-30
4.73788e-31
3.01037e-32
1.00323e-32
3.44245e-33
-6.11428e-33
-6.45727e-33
-1.11584e-32
-5.33378e-33
-2.41603e-33
-2.11487e-33
-9.69162e-34
-6.1422e-34
-3.03831e-34
-1.39551e-34
-6.46769e-35
-2.92257e-35
-1.21343e-35
-5.25241e-36
-2.28013e-36
-8.93367e-37
-3.85466e-37
-1.67455e-37
-5.98833e-38
-2.53958e-38
-1.08126e-38
-3.61097e-39
-1.52646e-39
-5.1656e-40
-2.09039e-40
-8.50356e-41
-1.80981e-41
-5.52992e-42
-7.17936e-43
-2.05942e-43
-1.52281e-43
-6.50259e-44
-2.05071e-44
-1.12895e-44
4.52734e-45
1.1232e-45
7.20323e-44
0
0
0
0
0
0
0
0
0
0
0
0
0
0
0
0
0
0
0
0
0
0
0
0
0
0
0
0
0
0
0
0
0
0
0
0
0
0
0
0
0
0
0
0
0
0
0
0
0
0
0
0
0
0
0
0
0
0
0
0
0
0
0
0
0
0
0
0
0
0
0
0
0
0
0
0
0
0
0
0
0
0
0
0
0
0
0
0
0
0
0
0
0
0
0
0
0
0
0
0
0
0
0
0
0
0
0
0
0
0
0
0
0
0
0
0
0
0
0
0
0
0
0
0
0
0
0
0
0
0
0
0
0
0
0
0
0
0
0
0
-7.19261e-128
-8.99076e-128
-7.6395e-128
-9.53732e-128
-2.71224e-126
-3.38098e-126
-2.52612e-126
-2.10931e-126
-4.7981e-122
-5.99549e-122
-3.04559e-122
-3.80558e-122
-1.96865e-122
-2.4521e-122
-7.23593e-122
-9.0396e-122
-4.64095e-122
-5.79761e-122
-9.45755e-120
4.25539e-121
-2.24177e-115
-2.80029e-115
-1.4259e-115
-1.78063e-115
-9.25773e-115
2.74624e-114
-2.85203e-112
-3.49144e-112
-3.36499e-112
-4.14734e-112
-3.13681e-111
-3.74717e-111
-2.11644e-111
-2.22105e-111
-3.30357e-110
-4.10533e-110
-2.15109e-110
-2.46426e-110
-8.72942e-110
-1.07285e-109
-5.73978e-110
-7.03111e-110
-3.4644e-110
-4.25119e-110
-2.63283e-110
-3.13158e-110
-1.33784e-109
-1.60482e-109
-3.79966e-108
-4.37428e-108
-4.70164e-106
-5.78625e-106
-3.03009e-106
-3.7304e-106
-2.16941e-106
-2.41865e-106
-1.90758e-104
-2.23868e-104
-4.96132e-104
-6.08591e-104
-3.14436e-104
-3.82631e-104
-1.46444e-103
4.08639e-103
-5.89676e-102
-6.5969e-102
-4.45012e-102
-4.85045e-102
-2.93658e-102
-3.15093e-102
-2.41284e-102
-5.53235e-103
-8.40324e-101
-9.59453e-101
-9.83434e-100
-1.10394e-99
-6.4182e-100
-7.19723e-100
-4.1812e-100
-4.70822e-100
-2.67937e-100
-2.96809e-100
-2.56145e-99
-2.84559e-99
-5.32391e-99
-6.41775e-99
-3.41958e-99
-4.11858e-99
-2.14013e-99
-2.31037e-99
-3.51367e-99
-4.01908e-99
-3.39273e-99
-4.01595e-99
-4.03515e-99
-4.5422e-99
-2.66798e-99
-2.34273e-99
-3.28749e-99
-3.49708e-99
-7.8628e-99
-7.61051e-99
-4.82624e-99
-4.7541e-99
-7.86774e-99
-9.12866e-99
-4.89343e-99
-5.69964e-99
-3.13877e-99
-3.42134e-99
-1.64181e-98
-1.98136e-98
-1.01901e-98
-1.22459e-98
-8.49376e-99
1.49564e-99
-7.30715e-98
-7.59461e-98
-8.63748e-98
-9.78254e-98
-1.24762e-97
-1.29978e-97
-8.89515e-98
-5.57491e-98
-1.27931e-97
-1.23059e-97
-1.01033e-97
-1.23517e-99
-2.22152e-97
-2.11295e-97
-2.18435e-97
-2.3268e-97
-1.40421e-97
-1.45644e-97
-1.35694e-97
-1.51429e-97
-1.29845e-97
-1.50613e-97
-8.61415e-98
-7.93077e-98
-1.86983e-97
-2.18319e-97
-1.02249e-97
-1.1427e-97
-5.87549e-98
-6.61412e-98
-1.02658e-97
-1.13069e-97
-1.47826e-97
-1.75804e-97
-8.57806e-98
-1.02001e-97
-5.11641e-98
-5.86161e-98
-4.09407e-98
-4.77352e-98
-3.00562e-98
-3.57014e-98
-2.84623e-98
-3.28198e-98
-1.72337e-98
-1.85618e-98
-1.03423e-98
-1.11995e-98
-6.50479e-99
-6.72608e-99
-4.01153e-99
-4.15297e-99
-7.12031e-99
-8.23256e-99
-4.28235e-99
-4.96107e-99
-8.23393e-99
-9.27252e-99
-1.30775e-98
-1.57035e-98
-8.00914e-99
-9.59656e-99
-4.51771e-99
-4.78708e-99
-7.35138e-99
-8.3162e-99
-6.91975e-99
-8.11074e-99
-6.68128e-99
-7.25499e-99
-4.40942e-99
-3.70544e-99
-2.27801e-98
-2.6917e-98
-1.34393e-98
-1.58283e-98
-1.43738e-98
-1.68045e-98
-1.36587e-98
-1.63783e-98
-8.43154e-99
-1.01148e-98
-5.18177e-99
-5.96023e-99
-1.44507e-98
-1.75298e-98
-7.78346e-99
-9.40641e-99
-4.38325e-99
-4.75104e-99
-4.7119e-99
-5.368e-99
-3.69972e-99
-4.39492e-99
-2.45052e-99
-2.92352e-99
-1.40297e-99
-1.64882e-99
-1.79773e-99
-2.19864e-99
-1.05987e-99
-1.26989e-99
-8.69406e-100
-1.04734e-99
-5.05326e-100
-6.11718e-100
-2.82674e-100
-3.42687e-100
-1.73322e-100
-2.10462e-100
-1.45314e-100
-1.7826e-100
-1.28399e-100
-1.55747e-100
-7.04841e-101
-8.56435e-101
-4.35713e-101
-5.30921e-101
-2.11408e-101
-2.57336e-101
-1.80785e-101
-2.19326e-101
-1.85532e-101
-2.287e-101
-9.81439e-102
-1.20884e-101
-5.28315e-102
-6.58606e-102
8.99363e-99
1.12413e-98
9.07846e-97
6.46559e-97
3.49859e-91
4.37311e-91
2.27166e-91
2.83912e-91
5.73763e-90
-2.71116e-89
4.77461e-89
-1.56559e-89
4.11015e-85
4.20741e-42
3.91045e-38
-1.9372e-35
6.89313e-33
4.51651e-31
1.27551e-29
1.86233e-28
1.37534e-27
5.79632e-27
1.67529e-26
3.1345e-26
4.63126e-26
6.38729e-26
8.23413e-26
1.01971e-25
1.26695e-25
1.68722e-25
2.10167e-25
2.28241e-25
2.1435e-25
1.72469e-25
1.18862e-25
7.19651e-26
4.07244e-26
2.03573e-26
9.08593e-27
3.80402e-27
1.39155e-27
4.03573e-28
8.94035e-29
1.39185e-29
1.49285e-30
1.03329e-31
4.63464e-33
8.25385e-35
-2.20129e-36
-7.75883e-38
1.0482e-40
6.96591e-42
1.09552e-44
9.74473e-46
1.45775e-48
-3.75625e-52
-2.51256e-57
-5.08364e-59
3.69303e-63
1.77251e-67
4.0129e-73
1.57612e-79
0.00131036
0.0035248
0.00359103
-0.00504902
-0.00170219
-0.00881061
-0.00783638
-0.00630067
-0.0108927
0.00446918
-0.00962822
0.0229509
-0.00348231
0.0451634
0.00676669
0.0713892
0.017234
0.0935741
0.0270557
0.116053
0.0335521
0.133911
0.039334
0.145527
0.0396751
0.154107
0.0350409
0.157204
0.0289506
0.158433
0.0196893
0.154503
0.0112172
0.151986
-0.00128278
0.153219
-0.0134926
0.147142
-0.0190468
0.825824
0.920287
0.93139
0.872846
0.9066
0.878198
0.879422
0.878529
0.885702
0.879816
0.885643
0.879294
0.886126
0.87787
0.885245
0.877983
0.884549
0.879291
0.885353
0.880256
0.886511
0.879998
0.886721
0.879318
0.886109
0.878775
0.885856
0.878408
0.885577
0.87816
0.884983
0.879174
0.884985
0.881464
0.887824
0.868765
0.876421
0.904696
0.939079
0.00327642
-0.00563242
-0.00412991
0.0288194
0.0821944
0.130297
0.160168
0.172369
0.16675
0.153819
-0.00209807
-0.00201245
-0.00157294
-0.00157574
-0.00163247
-0.00165376
-0.0016304
-0.00181862
-0.00195754
-0.00240253
7.03066e-44
0
0
0
0
0
0
0
0
0
0
0
0
0
0
0
4.09364e-44
-1.68321e-42
-3.23971e-39
-1.49946e-36
-1.39017e-36
-3.67082e-36
-1.50161e-34
-4.65987e-33
-3.80932e-33
-4.02856e-33
-6.15574e-33
-3.17306e-33
2.26176e-31
1.98525e-30
8.06218e-30
3.19902e-29
6.18625e-29
3.01918e-28
1.53862e-27
1.10651e-26
1.92643e-26
2.75672e-26
2.07873e-26
3.37798e-26
2.28733e-26
2.31504e-26
2.01963e-26
1.32521e-26
9.51486e-27
7.87864e-27
4.80234e-27
3.32821e-27
1.65971e-27
8.59413e-28
4.5986e-28
2.63217e-28
1.38653e-28
7.5168e-29
3.62808e-29
1.71446e-29
8.00321e-30
3.62971e-30
1.71042e-30
7.50377e-31
2.82836e-31
1.75059e-32
5.97481e-33
-2.41403e-33
-8.43994e-33
-5.44253e-33
-7.6657e-33
-3.51217e-33
-1.72193e-33
-1.46186e-33
-6.46877e-34
-4.48245e-34
-2.02683e-34
-8.72197e-35
-4.23422e-35
-1.94038e-35
-7.40148e-36
-3.55859e-36
-1.39732e-36
-5.89784e-37
-2.51723e-37
-1.05652e-37
-3.88924e-38
-1.70955e-38
-6.52284e-39
-2.51447e-39
-9.94435e-40
-3.42896e-40
-1.48657e-40
-4.41927e-41
-1.2201e-41
-4.45657e-42
-2.06109e-43
-1.81382e-43
-8.76266e-44
-3.46357e-44
-1.33159e-44
-5.52678e-45
2.42003e-45
0
-2.98987e-47
0
3.95303e-42
-2.95304e-39
5.13719e-85
-5.87744e-39
-3.33088e-37
2.41243e-34
5.78345e-32
2.68057e-30
5.32297e-29
5.34509e-28
3.00044e-27
1.03032e-26
2.37502e-26
3.8652e-26
5.45968e-26
7.30219e-26
9.20647e-26
1.12217e-25
1.46052e-25
1.90493e-25
2.22273e-25
2.25394e-25
1.96147e-25
1.46151e-25
9.43186e-26
5.49209e-26
2.92282e-26
1.38252e-26
5.96252e-27
2.36903e-27
7.83547e-28
1.9681e-28
3.82681e-29
4.7947e-30
4.1e-31
2.39269e-32
7.7215e-34
7.69726e-37
-5.46282e-37
-4.55291e-39
6.90066e-41
3.91623e-43
6.05805e-45
6.67538e-47
4.48202e-50
4.77829e-54
-2.34194e-57
4.26383e-61
5.2467e-65
1.17261e-70
3.38051e-77
0.000604235
5.7954e-82
-0.0703325
0.286155
0.405558
0.000583599
-0.00872031
0.00851239
0.0559387
0.106859
0.145996
0.167834
0.171652
0.166354
0.000639415
0.147532
-0.00185852
-0.00147336
-0.00160491
-0.00166373
-0.00162224
-0.00163233
-0.00168228
-0.00192303
-0.00168902
-0.00155427
0
0
0
0
0
0
0
0
0
0
0
0
0
0
4.93893e-44
2.72677e-41
-6.79824e-40
-8.23029e-37
2.71306e-37
-3.61354e-36
9.08947e-35
-1.80857e-33
-2.28569e-33
1.05091e-33
-3.17079e-33
1.25179e-33
-9.06254e-31
-2.86873e-31
-3.84775e-30
-6.37617e-30
-2.73742e-29
-9.67795e-28
-5.2791e-27
-1.15734e-26
-1.67237e-26
2.67778e-27
-1.04439e-27
1.32497e-26
-6.46946e-27
-6.89843e-27
5.02409e-27
2.49454e-27
-2.11225e-27
3.01146e-27
1.79076e-27
1.45119e-27
7.57397e-28
3.13155e-28
1.68932e-28
1.01671e-28
3.82341e-29
3.39801e-29
1.62156e-29
7.63669e-30
3.19314e-30
1.23792e-30
6.81659e-31
2.47844e-31
9.76007e-32
-8.33276e-32
-4.08223e-32
-2.00071e-32
-1.69611e-32
-4.78795e-33
-8.67583e-33
-4.04263e-33
-1.04005e-33
-1.40253e-33
-5.90022e-34
-4.16025e-34
-1.76781e-34
-7.89963e-35
-4.03707e-35
-1.8387e-35
-5.93964e-36
-3.16216e-36
-1.10161e-36
-4.41145e-37
-1.98269e-37
-7.6667e-38
-2.89395e-38
-1.37614e-38
-4.99089e-39
-2.078e-39
-8.49655e-40
-2.99458e-40
-1.41816e-40
-3.92461e-41
-1.02594e-41
-3.78415e-42
3.96285e-43
-4.57326e-46
-2.62323e-44
-1.77548e-44
-8.72327e-45
-3.82383e-45
3.87732e-45
6.92509e-46
-4.21229e-35
1.55861e-32
9.52352e-31
2.63964e-29
3.41824e-28
2.34367e-27
9.1534e-27
2.42814e-26
4.22744e-26
6.04527e-26
8.22188e-26
1.0517e-25
1.2807e-25
1.63047e-25
2.16533e-25
2.63035e-25
2.75355e-25
2.48481e-25
1.91641e-25
1.27485e-25
7.51771e-26
4.14316e-26
1.9879e-26
8.64348e-27
3.53146e-27
1.22488e-27
3.24019e-28
6.58871e-29
8.67983e-30
8.04222e-31
4.77759e-32
1.70209e-33
7.9077e-36
-1.10793e-36
-1.19979e-38
1.38308e-40
9.37158e-43
1.17834e-44
1.45657e-46
1.01906e-49
1.11501e-53
-5.25434e-57
1.01025e-60
1.2062e-64
2.75662e-70
8.24678e-77
1.9586e-81
-0.00128132
-0.00763804
-0.00744939
0.0119962
0.0327334
0.042219
0.0370522
0.0194457
-0.00409582
-0.0154492
0.00144416
0.00151809
0.00144644
0.00143036
0.00140447
0.00141049
0.00142397
0.00142536
0.00140819
0.000530477
0
0
0
0
0
0
0
0
0
0
0
0
0
0
-1.10224e-41
1.72719e-39
1.09621e-36
1.0896e-36
-5.90817e-36
5.87357e-36
-2.83998e-33
-3.67796e-33
-7.94595e-34
-4.96262e-33
-1.39238e-33
5.54516e-32
1.09423e-30
-1.61126e-30
2.71226e-30
2.09455e-29
-3.59064e-28
-1.87065e-27
-1.9998e-26
-2.53141e-26
1.05397e-26
-4.06343e-27
1.07989e-26
2.76481e-27
-1.07657e-26
5.71207e-27
3.91561e-27
-2.67408e-27
3.63803e-27
2.49155e-27
1.89839e-27
9.79493e-28
3.82318e-28
2.09869e-28
8.62687e-29
6.24779e-29
5.51018e-29
2.09979e-29
1.21446e-29
4.61396e-30
1.88682e-30
7.81329e-31
3.53398e-31
2.04186e-31
-1.09321e-31
-5.75748e-32
-1.92945e-32
-1.77678e-32
-7.79777e-33
-1.2737e-32
-6.12053e-33
-1.96551e-33
-2.00571e-33
-9.33483e-34
-5.49989e-34
-2.85155e-34
-1.29968e-34
-6.20156e-35
-2.74559e-35
-1.02237e-35
-4.58764e-36
-1.81561e-36
-6.73146e-37
-2.89158e-37
-1.27361e-37
-4.36895e-38
-1.86479e-38
-8.46777e-39
-2.68715e-39
-1.25992e-39
-4.29812e-40
-1.85119e-40
-8.0891e-41
-1.37427e-41
-3.88334e-42
1.5315e-43
1.44525e-43
-4.26786e-44
-3.37571e-44
-9.93878e-45
-9.54397e-45
7.24733e-45
1.89599e-45
5.59254e-30
1.04851e-28
9.55759e-28
4.86207e-27
1.58176e-26
3.3327e-26
5.11217e-26
7.14389e-26
9.39763e-26
1.16422e-25
1.42783e-25
1.88482e-25
2.42939e-25
2.73894e-25
2.66723e-25
2.22316e-25
1.59415e-25
9.85677e-26
5.66336e-26
2.8919e-26
1.32413e-26
5.6393e-27
2.1485e-27
6.46121e-28
1.50859e-28
2.46561e-29
2.8212e-30
2.05984e-31
9.76287e-33
1.99011e-34
-4.06923e-36
-1.77156e-37
1.25955e-42
1.5752e-41
1.68721e-44
2.1501e-45
3.31632e-48
-8.73763e-52
2.46518e-57
-1.21247e-58
8.84482e-63
4.15481e-67
9.69056e-73
4.5408e-79
2.37875e-84
-0.002458
-0.00943993
0.000580489
0.0235442
0.0405161
0.042473
0.0308657
0.00888298
-0.0106245
-0.054349
0.0013967
0.00140189
0.00143308
0.00138928
0.00139662
0.00142266
0.00142602
0.00138468
0.00174309
-0.000585252
0
9.20349e-38
1.27881e-31
6.41013e-34
-8.43891e-37
0.00281257
0
0
0
0
0
0
0
0
0
0
0
0
0
0
0
0
0
0
0
0
0
0
0
0
0
0
0
0
0
0
0
0
0
0
0
0
0
0
0
0
0
0
0
0
0
0
0
0
0
0
0
0
0
0
0
0
0
0
0
0
0
0
0
0
0
0
0
0
0
0
0
0
0
0
0
0
0
0
0
0
0
0
0
0
0
0
0
0
0
0
0
0
0
0
0
0
0
0
0
0
0
0
0
0
0
0
0
0
0
0
0
0
0
0
0
0
0
0
0
0
0
0
0
0
0
0
0
0
0
0
0
0
0
0
0
0
0
0
0
0
0
0
0
0
0
0
0
0
0
0
0
0
0
0
0
0
0
0
0
0
0
0
0
0
0
0
0
0
0
0
0
0
0
0
0
0
0
0
0
0
0
0
0
0
0
0
0
0
0
0
0
0
0
0
0
0
1.10357e-37
-7.06056e-39
-1.5942e-38
-4.97523e-35
0
0
0
0
0
0
0
0
0
0
0
0
2.76096e-41
-3.39344e-38
-3.36806e-36
-2.10181e-34
-3.68002e-34
-8.49369e-35
-8.87958e-33
-2.49585e-31
-1.90606e-31
-4.55322e-31
-3.49161e-31
7.54302e-32
7.53771e-29
2.11435e-28
1.02985e-27
3.42231e-27
6.7405e-27
6.36352e-26
3.01899e-25
8.35811e-25
1.26734e-24
1.10629e-24
9.3494e-25
9.94599e-25
1.04797e-24
9.91712e-25
6.13058e-25
4.31093e-25
3.25952e-25
1.77231e-25
1.03335e-25
6.10603e-26
3.05465e-26
1.60714e-26
8.55398e-27
3.88521e-27
1.54882e-27
7.69047e-28
2.88112e-28
9.81807e-29
2.98791e-29
-6.73957e-30
-2.23927e-30
-4.37233e-30
-9.99685e-30
-5.70528e-30
-2.64356e-30
-1.65395e-30
-8.13787e-31
-5.59287e-31
-2.83444e-31
-1.27599e-31
-7.25794e-32
-3.35053e-32
-1.53085e-32
-7.70157e-33
-3.30685e-33
-1.39517e-33
-6.23119e-34
-2.57434e-34
-6.85107e-35
-3.16088e-35
-4.69052e-36
-4.14836e-37
-5.89585e-37
4.63997e-37
1.65895e-37
9.37204e-38
8.76286e-38
3.00365e-38
1.57856e-38
4.88159e-39
1.0489e-39
1.14506e-39
3.50106e-40
1.38477e-40
8.07363e-41
2.34241e-41
9.24647e-42
2.7426e-42
8.72598e-43
6.4666e-43
2.31824e-43
2.90186e-43
6.7718e-30
0
9.02707e-44
0
0
0
0
0
0
0
0
0
0
0
0
0
0
0
0
0
0
0
0
0
0
0
0
0
0
0
0
0
0
0
0
0
0
0
0
0
0
0
0
0
0
0
0
0
0
0
0
0
0
0
0
0
0
0
0
0
0
0
0
0
0
0
0
0
0
0
0
0
0
0
0
0
0
0
0
0
0
0
0
0
0
0
0
0
0
0
0
0
0
0
0
0
0
0
0
0
0
0
0
0
0
0
0
0
0
0
0
0
0
0
0
0
0
0
0
0
0
0
0
0
0
0
0
0
0
0
0
0
0
0
0
0
0
0
0
0
0
-1.03446e-125
-1.31735e-125
-1.05692e-125
-1.3123e-125
-7.10419e-126
-7.22334e-126
-5.03254e-124
-6.2627e-124
-7.50684e-124
-9.06615e-124
-2.58722e-120
-3.21708e-120
-1.62875e-120
-2.06606e-120
-1.11805e-119
-1.38464e-119
-7.10346e-120
-8.89688e-120
-1.43296e-119
3.28172e-119
-4.45613e-118
2.52395e-119
-9.85533e-114
-1.22497e-113
-1.37575e-113
-7.85031e-114
-2.09809e-110
-2.63311e-110
-4.22209e-110
-5.19079e-110
-2.74021e-110
-3.34149e-110
-1.04288e-108
-1.22679e-108
-2.49538e-108
-3.16912e-108
-1.58858e-108
-1.94768e-108
-1.32508e-107
-1.66612e-107
-1.29489e-107
-1.59857e-107
-8.47294e-108
-1.06346e-107
-5.00854e-108
-6.28489e-108
-8.4879e-108
-1.04873e-107
-2.03159e-107
-2.46376e-107
-1.54634e-106
-1.67933e-106
-3.02225e-104
-3.66986e-104
-1.87176e-104
-2.30867e-104
-1.49639e-104
-1.42224e-104
-2.63524e-102
-3.17884e-102
-2.27301e-102
-2.65423e-102
-2.76757e-102
-1.03941e-102
-6.16485e-100
-7.12575e-100
-8.82024e-100
-1.01719e-99
-8.04106e-100
9.51466e-101
-6.16491e-100
-9.87154e-101
-2.2264e-99
-2.34386e-99
-7.00589e-99
-3.08931e-99
-1.25205e-97
-1.49762e-97
-8.08883e-98
-9.34857e-98
-4.96652e-98
-5.66997e-98
-3.14073e-98
-3.50979e-98
-2.93759e-97
-3.46101e-97
-2.20808e-97
-2.61803e-97
-1.425e-97
-1.71481e-97
-2.98621e-97
-3.52972e-97
-3.26137e-97
-3.87289e-97
-2.02304e-97
-2.40808e-97
-4.39965e-97
-4.43583e-97
-8.12884e-97
-9.61762e-97
-4.35175e-97
-3.83854e-97
-1.83286e-96
-2.21513e-96
-1.06688e-96
-1.27365e-96
-6.19971e-97
-7.38099e-97
-3.7708e-97
-4.23797e-97
-3.85114e-97
-4.39884e-97
-6.26218e-97
-7.42653e-97
-4.15282e-97
-4.62732e-97
-7.78634e-96
-8.98757e-96
-1.04874e-95
-1.21175e-95
-6.83835e-96
-7.81476e-96
-1.53199e-95
-1.36121e-95
-3.15296e-95
-3.64423e-95
-2.19077e-95
-1.64624e-95
-6.25776e-95
-7.33862e-95
-3.88712e-95
-4.48378e-95
-2.36041e-95
-2.75622e-95
-1.75863e-95
-2.03657e-95
-1.16203e-95
-1.31615e-95
-7.58312e-96
-8.62346e-96
-1.58735e-95
-1.87496e-95
-9.16802e-96
-1.00638e-95
-7.44228e-96
-8.83809e-96
-4.23097e-96
-4.9372e-96
-8.80918e-96
-1.02735e-95
-5.42811e-96
-6.34929e-96
-3.16448e-96
-3.78546e-96
-3.07047e-96
-3.65501e-96
-1.93732e-96
-2.25079e-96
-1.14094e-96
-1.08659e-96
-1.66756e-96
-1.88523e-96
-1.75267e-96
-2.10259e-96
-1.04224e-96
-1.24939e-96
-8.89917e-97
-1.08507e-96
-5.23839e-97
-6.26554e-97
-4.3167e-97
-5.21716e-97
-2.54925e-97
-3.0995e-97
-6.68568e-97
-7.87386e-97
-4.79986e-97
-5.68398e-97
-2.97228e-97
-3.56681e-97
-5.85906e-97
-6.81073e-97
-6.91331e-97
-8.14376e-97
-4.28409e-97
-5.05563e-97
-7.73637e-97
-6.99385e-97
-1.20481e-96
-1.39298e-96
-1.15615e-96
-1.18663e-96
-6.83012e-97
-7.24462e-97
-8.9111e-97
-9.73502e-97
-5.67647e-97
-6.33641e-97
-3.44283e-97
-3.95219e-97
-3.91631e-97
-4.51469e-97
-4.83393e-97
-5.79964e-97
-2.6013e-97
-3.1364e-97
-5.25786e-97
-6.26006e-97
-3.80155e-97
-4.50734e-97
-2.10095e-97
-2.55158e-97
-1.34001e-97
-1.57987e-97
-9.63725e-98
-1.19393e-97
-5.52087e-98
-6.64e-98
-5.65951e-98
-6.85603e-98
-4.07205e-98
-4.85781e-98
-2.13127e-98
-2.5918e-98
-1.27037e-98
-1.5815e-98
-7.75688e-99
-9.4672e-99
-4.43748e-99
-5.26593e-99
-6.49892e-99
-7.97794e-99
-3.696e-99
-4.5207e-99
-2.18363e-99
-2.66158e-99
-1.07317e-99
-1.32289e-99
-1.13417e-99
-1.3915e-99
-6.03016e-100
-7.39662e-100
-3.16287e-100
-3.96421e-100
-2.25986e-101
-3.98122e-101
9.95885e-97
1.23448e-96
3.56141e-95
-2.93191e-95
2.51303e-89
3.11322e-89
3.45402e-88
3.45258e-88
5.62803e-85
6.97377e-85
3.7783e-85
3.02723e-84
4.75632e-85
1.55424e-31
-0.00227897
-0.00108781
-0.0005362
1.89461e-32
4.50047e-32
-1.01327e-36
2.63924e-37
-2.55569e-36
1.15485e-30
3.43994e-31
2.51117e-30
7.91946e-34
2.14946e-33
1.26593e-28
1.15256e-27
5.86188e-27
1.90867e-26
4.02144e-26
6.16415e-26
8.61265e-26
1.13599e-25
1.4012e-25
1.72276e-25
2.26965e-25
2.92632e-25
3.30313e-25
3.20798e-25
2.67129e-25
1.91783e-25
1.18742e-25
6.82074e-26
3.47851e-26
1.59162e-26
6.77258e-27
2.57678e-27
7.77288e-28
1.81365e-28
2.9706e-29
3.40831e-30
2.48748e-31
1.18144e-32
2.42358e-34
-4.79033e-36
-2.14525e-37
-4.16944e-41
1.88508e-41
2.34233e-44
2.55145e-45
3.93221e-48
-1.03553e-51
4.32842e-57
-1.45269e-58
1.06763e-62
4.91128e-67
1.17275e-72
5.5211e-79
2.37514e-81
6.7194e-81
9.90698e-84
-0.000195819
0.000820491
0.14816
-0.0025415
-0.00128742
-0.000211598
0.00053665
0.000819075
0.00278299
0.00160178
0.00456007
0.00204495
0.00543391
0.00172099
0.00471643
0.000850943
0.00259953
-0.000464482
8.78631e-05
-0.00273784
-0.00181976
-0.00436622
-0.00450748
-0.00548598
-0.00745357
-0.00633346
-0.00980093
-0.00703014
-0.0119591
-0.00706173
-0.0134343
-0.00715387
-0.015235
-0.00683986
-0.0173484
-0.00539372
-0.0203813
-0.00534074
0.367569
0.911031
0.885929
0.900129
0.894793
0.896606
0.893901
0.901846
0.894385
0.900873
0.893384
0.900757
0.892817
0.899905
0.893721
0.900044
0.894543
0.901123
0.894893
0.901233
0.894467
0.901772
0.894242
0.901279
0.893326
0.900385
0.893508
0.900595
0.893334
0.900183
0.897939
0.903934
0.87246
0.884256
1.00429
0.700404
0.973223
0
0.00129104
0.00497948
0.00476089
0.000562319
-0.00587368
-0.01122
-0.0154501
-0.0204717
-0.0474
-0.00131576
-0.000442923
0.000537616
0.00128359
-0.00045141
0.000826897
0.000859046
0.000829447
0.000752895
0.000804537
0.000846799
0.00094918
0.00108278
-0.000523082
0
0
0
-2.70364e-05
-0.000122358
0.00117545
0.991688
1.00049
0.508272
0.000436229
0.000531423
-0.0356554
-0.00387695
8.98205e-05
-0.00027318
2.26892e-43
0
0
-7.57415e-42
-1.09877e-34
0
4.18026e-42
0
0
0
0
0
0
0
0
0
0
0
0
1.43014e-38
-8.88397e-37
-2.57829e-34
-5.56687e-34
-2.47778e-34
-1.45424e-34
-2.99429e-31
-2.15703e-31
-3.69975e-31
-4.34779e-31
3.52739e-32
-9.83741e-30
1.2834e-28
7.60413e-28
2.76378e-27
3.62042e-27
2.07675e-26
9.76707e-26
7.97537e-25
1.37932e-24
1.21737e-24
1.13164e-24
1.23369e-24
9.86457e-25
1.19164e-24
7.96736e-25
5.36717e-25
4.12124e-25
2.41152e-25
1.40295e-25
8.75351e-26
4.33904e-26
2.26876e-26
1.14893e-26
5.72459e-27
2.43584e-27
1.11862e-27
4.36862e-28
1.32038e-28
6.7667e-29
-7.23213e-30
-3.75196e-30
-7.35376e-30
-1.2156e-29
-8.44575e-30
-3.86651e-30
-2.46715e-30
-1.21638e-30
-7.0998e-31
-3.98839e-31
-1.93352e-31
-9.93931e-32
-4.95897e-32
-2.28012e-32
-1.08586e-32
-5.36028e-33
-2.11912e-33
-9.39918e-34
-3.86509e-34
-1.14003e-34
-4.52769e-35
-7.71421e-36
-1.27281e-38
-2.33164e-37
1.47443e-37
2.80172e-37
1.88671e-37
1.36046e-37
5.18403e-38
2.63476e-38
9.02094e-39
2.47928e-39
1.49926e-39
6.33487e-40
2.72198e-40
1.35877e-40
4.46787e-41
1.69472e-41
4.80643e-42
1.92519e-42
7.48692e-43
4.02464e-43
1.29074e-43
0
0
0
0
-0.0378456
3.19528e-29
4.11859e-28
2.82309e-27
1.10598e-26
2.92916e-26
5.10165e-26
7.28738e-26
9.91933e-26
1.26986e-25
1.54251e-25
1.96627e-25
2.60798e-25
3.17202e-25
3.3138e-25
2.98899e-25
2.30117e-25
1.53627e-25
9.05777e-26
4.98788e-26
2.38807e-26
1.03838e-26
4.24364e-27
1.47126e-27
3.89485e-28
7.91689e-29
1.04749e-29
9.71162e-31
5.77133e-32
2.05996e-33
1.01547e-35
-1.33054e-36
-1.48288e-38
1.63065e-40
1.14241e-42
1.4023e-44
1.73622e-46
1.21267e-49
1.33489e-53
-6.2829e-57
1.20283e-60
1.44608e-64
3.28665e-70
9.80595e-77
0
0.000261199
0.00127973
0.094392
-6.41348e-05
0
0.00329552
0.00558155
0.00254733
-0.00329079
-0.00893819
-0.0139168
-0.0177555
-0.0114187
-0.0255288
-0.000402444
0.000885706
0.000805124
0.000810262
-0.000397845
-0.000409962
0.000752451
0.000798797
0.000853678
0.000919263
0.00084055
0.000150856
0.000999188
0
0
0
0.00165321
-0.000452216
-0.000406389
-0.000411819
-0.000407294
-0.00707552
-0.00806869
-0.0079407
-0.00658679
-0.00356665
0.000137622
1.35772e-78
2.80537e-72
1.18388e-66
2.48457e-62
-3.46161e-58
3.26289e-56
-2.37754e-51
9.01466e-48
5.45926e-45
4.05035e-44
4.24691e-41
-6.70586e-40
-4.92497e-37
-8.31825e-36
5.57076e-34
2.49169e-32
4.81821e-31
6.31915e-30
5.32547e-29
2.99642e-28
1.24945e-27
3.86317e-27
9.77539e-27
2.29994e-26
4.95218e-26
9.35563e-26
1.61509e-25
2.53183e-25
3.42911e-25
3.92978e-25
3.90088e-25
3.35132e-25
2.52593e-25
1.95283e-25
1.6082e-25
1.27574e-25
9.56351e-26
6.80887e-26
4.17178e-26
1.72723e-26
3.74718e-43
2.98753e-43
8.41599e-43
1.18209e-42
3.69355e-42
1.25097e-41
3.21422e-41
1.09872e-40
1.94099e-40
5.05786e-40
1.61817e-39
1.91175e-39
7.98934e-39
2.41041e-38
5.15612e-38
1.48052e-37
2.20766e-37
4.83767e-37
1.30665e-36
1.18829e-36
3.81846e-36
3.91245e-36
-1.3786e-35
-2.08941e-35
-1.7094e-34
-4.32476e-34
-8.65361e-34
-2.3732e-33
-5.12017e-33
-9.43047e-33
-2.30939e-32
-4.66032e-32
-8.18441e-32
-1.9865e-31
-3.82056e-31
-6.99098e-31
-1.63073e-30
-2.32309e-30
-5.7954e-30
-1.10279e-29
-9.19014e-30
-1.14046e-29
-3.28129e-29
-5.20637e-29
-6.49723e-29
-1.00597e-28
-3.79437e-29
-2.67683e-28
4.81966e-28
2.79222e-27
4.44444e-27
8.33491e-27
1.88981e-26
2.22898e-26
4.2299e-26
7.31332e-26
2.06606e-26
1.27165e-26
-2.14172e-25
-2.50231e-26
-9.17603e-26
0
0
-2.33581e-25
-3.00076e-25
-8.65656e-25
-9.03895e-25
-6.49894e-25
-1.56524e-25
-1.26783e-26
-5.79522e-27
-1.45594e-27
-3.77334e-28
-5.89255e-29
-7.83433e-31
7.73787e-32
6.3931e-31
5.15496e-32
4.94344e-32
1.26272e-32
-9.11186e-35
-3.4861e-34
-5.01304e-35
7.03601e-36
1.72349e-37
-7.51874e-43
0
0
-8.65982e-05
-0.000323399
-0.000412423
-0.000406378
-0.000404289
-0.000404345
-0.000395969
-0.0868305
-0.00855304
-0.00696698
-0.00847422
-0.00718347
-0.00468115
-4.59824e-05
2.2945e-76
7.80143e-70
3.37999e-64
2.79715e-60
-1.43179e-56
3.03908e-53
2.90591e-49
3.93017e-46
2.73977e-44
2.82257e-42
3.19965e-40
-3.68539e-38
-2.63649e-36
3.63062e-35
4.48602e-33
1.14986e-31
1.86001e-30
1.87671e-29
1.34224e-28
6.34577e-28
2.26225e-27
6.32454e-27
1.52247e-26
3.40357e-26
6.91542e-26
1.23803e-25
2.06691e-25
2.99466e-25
3.74874e-25
3.97745e-25
3.6702e-25
2.93781e-25
2.18764e-25
1.76818e-25
1.44254e-25
1.11486e-25
8.034e-26
5.5022e-26
2.84296e-26
0
1.41139e-29
1.64985e-43
5.18049e-43
1.00269e-42
2.56987e-42
6.5577e-42
2.28223e-41
6.04204e-41
1.81366e-40
3.76328e-40
8.95607e-40
2.1535e-39
4.23718e-39
1.4249e-38
4.06974e-38
8.62209e-38
2.28881e-37
4.06134e-37
7.89895e-37
1.39228e-36
2.65299e-36
6.34256e-36
5.11106e-36
-1.52231e-35
-5.1621e-35
-2.48549e-34
-5.9021e-34
-1.39045e-33
-3.6489e-33
-6.54469e-33
-1.53009e-32
-3.23092e-32
-5.87065e-32
-1.33938e-31
-2.76088e-31
-4.27755e-31
-1.09738e-30
-2.441e-30
-3.51478e-30
-8.52227e-30
-1.30526e-29
-1.55082e-29
-2.02626e-29
-6.52194e-29
-3.61836e-29
-1.2917e-28
-1.06925e-28
-7.35291e-29
-7.74302e-29
1.24444e-27
3.52828e-27
8.52706e-27
1.42735e-26
3.68531e-26
3.68071e-26
5.96682e-26
6.02481e-26
2.62854e-26
-3.63697e-26
1.56778e-25
-4.68573e-25
-2.11387e-25
-6.55572e-26
-5.07382e-25
-1.19573e-24
-7.61704e-25
-1.07249e-25
-1.73355e-26
-4.05635e-27
1.3776e-27
1.40099e-28
-2.85291e-28
-9.48317e-30
5.36315e-32
2.47554e-31
-2.18574e-31
7.43559e-32
-1.18765e-31
1.71681e-33
-2.30482e-34
-5.77187e-34
0
-5.05125e-36
-6.688e-37
1.67908e-38
0
0
0
0
0
0
0
0
0
0
0
0
4.72291e-27
7.49452e-28
6.34981e-29
2.39467e-28
2.06637e-27
9.38443e-27
0.00166532
0.000929268
-0.0017447
-0.000409657
-0.000406004
-0.000398417
-0.000397859
0
0
0
0
0
0
0
0
0
0
0
0
0
0
0
0
0
0
0
0
0
0
0
0
0
0
0
0
0
0
0
0
0
0
0
0
0
0
0
0
0
0
0
0
0
0
0
0
0
0
0
0
0
0
0
0
0
0
0
0
0
0
0
0
0
0
0
0
0
0
0
0
0
0
0
0
0
0
0
0
0
0
0
0
0
0
0
0
0
0
0
0
0
0
0
0
0
0
0
0
0
0
0
0
0
0
0
0
0
0
0
0
0
0
0
0
0
0
0
0
0
0
0
0
0
0
0
0
0
0
0
0
0
0
0
0
0
0
0
0
0
0
0
0
0
0
0
0
0
0
0
0
0
0
0
0
0
0
0
0
0
0
0
0
0
0
0
0
0
0
0
0
0
0
0
0
0
0
0
0
0
0
0
0
0
0
0
0
0
0
-1.93446e-38
-1.30158e-34
5.73003e-27
0.000108662
0
0
0
0
0
0
0
0
0
-5.47211e-32
3.91221e-23
0
0
0
0
0
2.10638e-05
0
0
-5.44189e-39
9.06524e-37
-1.88491e-34
-2.53516e-33
5.822e-33
-5.80737e-32
0
0
-2.46371e-32
-1.41259e-32
3.82929e-32
-1.43741e-29
-2.11816e-29
-1.81258e-29
-4.89858e-29
4.38622e-29
-4.71315e-28
1.40871e-26
4.68916e-26
1.49969e-25
3.0624e-25
2.04132e-24
8.19124e-24
4.11602e-23
6.82386e-23
5.11091e-23
4.03275e-23
-1.68326e-23
0
0
3.39996e-23
3.00931e-23
2.69297e-23
1.52345e-23
9.72054e-24
5.34475e-24
2.812e-24
1.51358e-24
7.19587e-25
3.47415e-25
1.20896e-25
6.74619e-26
4.71742e-27
-1.64883e-26
-7.03891e-27
-5.7707e-27
-4.49828e-27
-2.75195e-27
-2.43962e-27
-1.1222e-27
-5.96338e-28
-4.01074e-28
-2.07823e-28
-1.02208e-28
-4.76748e-29
-2.54867e-29
-1.19544e-29
-5.72257e-30
-2.49077e-30
-7.8956e-31
-3.58276e-31
-1.26975e-31
-4.55745e-32
-7.77188e-33
1.23587e-32
5.61242e-33
2.14929e-33
1.90115e-33
1.03706e-33
5.93892e-34
2.1816e-34
8.82422e-35
5.0765e-35
2.02515e-35
7.49751e-36
4.06352e-36
1.47121e-36
7.52871e-37
3.13845e-37
1.00661e-37
4.22845e-38
1.57917e-38
5.19345e-39
2.07074e-39
6.51922e-40
2.53526e-40
8.52296e-41
2.56331e-41
1.35881e-41
8.74056e-42
0
0
0
0
0
0
0
0
0
0
0
0
0
0
0
0
0
0
0
0
0
0
0
0
0
0
0
0
0
0
0
0
0
0
0
0
0
0
0
0
0
0
0
0
0
0
0
0
0
0
0
0
0
0
0
0
0
0
0
0
0
0
0
0
0
0
0
0
0
0
0
0
0
0
0
0
0
0
0
0
0
0
0
0
0
0
0
0
0
0
0
0
0
0
0
0
0
0
0
0
0
0
0
0
0
0
0
0
0
0
0
0
0
0
0
0
0
0
0
0
0
0
0
0
0
0
0
0
0
0
0
0
0
0
0
0
0
0
-1.24472e-123
-1.54998e-123
-8.02007e-124
-9.96958e-124
-1.05771e-121
-1.36185e-121
-6.73805e-122
-8.36348e-122
-4.65786e-122
-5.16385e-122
-2.90938e-118
-3.63198e-118
-9.74361e-118
-1.2314e-117
-3.94582e-117
-4.89711e-117
-7.77762e-117
2.07461e-116
-2.02746e-115
-2.42605e-115
-7.78963e-116
-1.39414e-116
-8.64524e-112
3.60433e-111
-4.2152e-111
1.42539e-110
-1.96285e-108
-2.4249e-108
-2.98373e-108
5.1203e-108
-3.82726e-108
5.5963e-108
-4.78831e-106
-5.91316e-106
-3.06563e-106
-3.65508e-106
-1.9481e-106
-2.33132e-106
-1.01193e-105
-1.24857e-105
-7.18585e-106
-8.88482e-106
-4.57727e-106
-5.85588e-106
-5.10157e-106
-6.17902e-106
-7.25897e-106
-8.7744e-106
-3.12399e-105
1.27438e-104
-1.21379e-104
2.95863e-104
-4.41958e-102
-5.45636e-102
-3.84689e-102
1.3363e-102
-3.76713e-102
2.27001e-102
-2.00707e-100
-2.35939e-100
-3.33414e-100
7.06555e-100
-1.63048e-99
6.21433e-99
-8.30287e-98
-9.47341e-98
-9.30506e-98
9.22333e-98
-9.91135e-97
-1.01501e-96
-6.3958e-97
-6.30868e-97
-4.22595e-97
-4.087e-97
-4.91452e-96
-5.46358e-96
-7.94748e-96
-9.18112e-96
-7.84424e-96
-9.12337e-96
-5.43384e-96
-2.97226e-96
-3.80195e-96
-2.31846e-96
-1.75139e-95
-2.02603e-95
-1.16882e-95
-9.3611e-96
-7.88883e-96
-6.7191e-96
-2.35529e-95
-2.69488e-95
-1.59781e-95
-9.3799e-96
-1.24091e-95
-7.57075e-97
-9.38796e-95
-1.08349e-94
-5.87363e-95
-5.81484e-95
-1.11232e-94
-1.34054e-94
-6.4225e-95
-7.33342e-95
-5.59248e-95
-6.50064e-95
-3.5592e-95
-2.67373e-95
-4.70117e-95
-4.70627e-95
-3.08561e-95
-2.97415e-95
-3.02523e-95
2.11958e-95
-3.01409e-95
2.47661e-95
-6.36237e-94
-7.41827e-94
-6.43904e-94
3.96473e-94
-5.30896e-94
-1.35216e-95
-3.17647e-93
-3.5511e-93
-2.08227e-93
-1.6242e-93
-6.35199e-93
-7.64234e-93
-3.39451e-93
-3.86514e-93
-2.0912e-93
-2.23267e-93
-1.31086e-93
-1.24461e-93
-1.22698e-93
-1.27363e-93
-8.16008e-94
-8.4096e-94
-5.57702e-94
-4.89838e-94
-7.31175e-94
-7.85098e-94
-7.52207e-94
-8.65943e-94
-4.08891e-94
-3.79174e-94
-2.43886e-94
-2.33632e-94
-4.26536e-94
-4.87888e-94
-2.3119e-94
-2.54041e-94
-1.34858e-94
-1.53213e-94
-1.5598e-94
-1.82151e-94
-8.75774e-95
-9.09686e-95
-2.00197e-94
-2.39637e-94
-1.18796e-94
-1.37736e-94
-6.9987e-95
-7.9145e-95
-4.13853e-95
-4.84715e-95
-2.79256e-95
-3.17623e-95
-2.14114e-95
-2.51694e-95
-1.32642e-95
-9.04736e-96
-8.81645e-96
-6.36742e-96
-3.16598e-95
-3.65194e-95
-2.13208e-95
-1.3381e-95
-1.44149e-95
-9.81143e-96
-4.83166e-95
-5.40955e-95
-3.67833e-95