/*--------------------------------*- C++ -*----------------------------------*\
  =========                 |
  \\      /  F ield         | OpenFOAM: The Open Source CFD Toolbox
   \\    /   O peration     | Website:  https://openfoam.org
    \\  /    A nd           | Version:  7
     \\/     M anipulation  |
\*---------------------------------------------------------------------------*/
FoamFile
{
    version     2.0;
    format      ascii;
    class       volScalarField;
    location    "0.15";
    object      T;
}
// * * * * * * * * * * * * * * * * * * * * * * * * * * * * * * * * * * * * * //

dimensions      [0 0 0 1 0 0 0];

internalField   nonuniform List<scalar> 
23686
(
0.509941
0.91065
0.997321
0.975491
1.00721
1.01723
1.00281
1.00893
1.00021
1.00109
0.999724
0.999249
0.99987
0.999516
0.999972
0.999822
0.999992
0.999883
0.999982
0.999862
0.999973
0.999832
0.999962
0.999821
0.999969
0.99982
0.999981
0.999832
0.999976
0.999841
0.99998
0.999835
0.999982
0.999844
0.999981
0.999845
0.99999
0.999845
0.999982
0.999845
0.99998
0.999839
0.999977
0.999837
0.999984
0.999844
0.999983
0.999846
0.999978
0.99984
0.999979
0.999837
0.999977
0.999836
0.999979
0.999832
0.999978
0.999839
0.999975
0.999839
0.99998
0.99984
0.999979
0.999843
0.99998
0.999835
0.99998
0.999837
0.999981
0.99984
0.999986
0.999842
0.999981
0.999845
0.99998
0.999841
0.99998
0.99984
0.999984
0.999844
0.999982
0.999843
0.999979
0.999838
0.999982
0.999839
0.999976
0.999838
0.999979
0.999835
0.999978
0.999836
0.999971
0.99983
0.999977
0.999827
0.999974
0.999836
0.999979
0.99983
0.999978
0.999833
0.999973
0.999829
0.999974
0.999823
0.999977
0.999835
0.999974
0.999837
0.99998
0.999841
0.999987
0.999849
0.999983
0.999845
0.999979
0.999839
0.999983
0.999841
0.999977
0.999839
0.999979
0.999834
0.999977
0.999836
0.999971
0.999832
0.999974
0.999829
0.999975
0.999836
0.999976
0.999831
0.99998
0.999836
0.999975
0.999835
0.999976
0.999827
0.999978
0.999837
0.999974
0.999836
0.999978
0.999841
0.999983
0.999849
0.999993
0.999852
0.999984
0.999846
0.999981
0.999834
0.999973
0.99983
0.999977
0.999829
0.999976
0.999834
0.999972
0.999836
0.999983
0.999846
0.999987
0.999855
0.99998
0.999839
0.999977
0.999837
0.999976
0.999835
0.999978
0.99983
0.999978
0.999836
0.999977
0.999838
0.999979
0.999844
0.999983
0.999847
0.99999
0.999847
0.99998
0.99984
0.999981
0.999833
0.999968
0.999827
0.999963
0.999816
0.999955
0.999811
0.999915
0.999793
0.999841
0.999608
0.999751
0.111652
-0.00313213
-0.000303527
4.94551e-05
-8.91391e-06
-1.10127e-06
1.91006e-07
3.10666e-08
5.28719e-10
-1.96804e-10
-2.17363e-11
-6.67701e-13
4.98174e-14
8.42845e-15
4.48037e-16
8.52644e-18
-9.49743e-19
-1.0351e-19
-5.09567e-21
-1.36784e-22
2.8632e-24
4.78315e-25
2.67819e-26
1.01795e-27
1.68639e-29
-8.31386e-31
-8.76509e-32
-5.14234e-33
-1.73971e-34
-3.1881e-36
4.12995e-38
6.99339e-39
3.60305e-40
1.38206e-41
4.40866e-43
8.4329e-45
3.81568e-47
-7.61875e-48
-4.46903e-49
-1.64842e-50
-5.07674e-52
-1.38684e-53
-2.58398e-55
-2.48942e-57
7.66169e-59
5.28897e-60
1.88393e-61
5.58074e-63
1.63654e-64
-5.93016e-83
9.86749e-66
3.79534e-64
-7.22848e-62
-1.19712e-59
6.23789e-58
5.21005e-57
-2.61146e-55
-1.3863e-53
1.41284e-52
4.16922e-52
-1.38219e-49
-5.20541e-48
-6.82303e-47
5.32476e-47
-6.75289e-45
-3.29972e-44
-1.02845e-41
-1.41269e-40
-7.89211e-40
-2.43744e-39
1.49069e-37
1.06503e-36
4.01601e-35
-6.11705e-34
2.14596e-33
8.68692e-32
-3.54345e-31
1.09498e-30
-7.3498e-30
1.26703e-29
-1.74859e-28
3.90205e-28
3.68294e-27
1.82931e-26
1.75688e-26
3.64463e-25
1.66985e-24
4.03597e-24
9.19386e-24
1.8855e-23
3.86645e-23
6.75743e-23
1.0996e-22
1.56476e-22
1.85197e-22
1.87982e-22
1.90119e-22
1.93543e-22
1.42381e-22
1.07895e-22
1.001
1.00054
1.00001
1.00045
0.998117
0.999039
0.997197
0.997095
1.00519
1.00218
1.01161
1.00917
1.0088
1.00931
0.991739
0.997597
0.952361
0.965845
0.886722
0.908197
0.799708
0.826195
0.701664
0.731862
0.596329
0.628415
0.494642
0.524229
0.397971
0.425279
0.31012
0.3342
0.237371
0.256999
0.178539
0.19455
0.129378
0.142345
0.0934049
0.102828
0.0662998
0.0733652
0.0461727
0.0515063
0.0316165
0.0353881
0.0216417
0.0242118
0.0144697
0.0162863
0.00955849
0.0107948
0.00614174
0.00697755
0.00398809
0.00452623
0.00257049
0.00292875
0.00159932
0.00183412
0.00100625
0.00115177
0.000623319
0.000716284
0.000378792
0.000436567
0.000231005
0.000266082
0.00014056
0.000162416
8.24491e-05
9.58484e-05
4.92327e-05
5.70243e-05
2.91547e-05
3.38437e-05
1.69411e-05
1.97577e-05
1.00183e-05
1.16843e-05
5.70571e-06
6.69257e-06
3.3097e-06
3.87075e-06
1.88938e-06
2.21623e-06
1.0509e-06
1.23601e-06
5.9617e-07
6.99213e-07
3.38728e-07
3.98358e-07
1.8509e-07
2.18735e-07
1.03373e-07
1.21741e-07
5.75537e-08
6.78939e-08
3.13898e-08
3.72451e-08
1.69479e-08
2.0091e-08
9.26735e-09
1.0953e-08
5.06668e-09
6.00456e-09
2.72494e-09
3.23905e-09
1.44265e-09
1.71586e-09
7.762e-10
9.21673e-10
4.1889e-10
4.98834e-10
2.18159e-10
2.60767e-10
1.16582e-10
1.38914e-10
6.12692e-11
7.32202e-11
3.14289e-11
3.75795e-11
1.66099e-11
1.97983e-11
8.75168e-12
1.04653e-11
4.43745e-12
5.32305e-12
2.30815e-12
2.75946e-12
1.20015e-12
1.43665e-12
6.1104e-13
7.35267e-13
3.08367e-13
3.70565e-13
1.59162e-13
1.90755e-13
8.08803e-14
9.71477e-14
4.10556e-14
4.93691e-14
2.02513e-14
2.43715e-14
1.02698e-14
1.23239e-14
5.24424e-15
6.31525e-15
2.57327e-15
3.10562e-15
1.29963e-15
1.5647e-15
6.48241e-16
7.82569e-16
3.18647e-16
3.84317e-16
1.58698e-16
1.91074e-16
7.93119e-17
9.57921e-17
3.82656e-17
4.62933e-17
1.89609e-17
2.28593e-17
9.34528e-18
1.12816e-17
4.52926e-18
5.47579e-18
2.25082e-18
2.72489e-18
1.06916e-18
1.29726e-18
5.22322e-19
6.32105e-19
2.5012e-19
3.03469e-19
1.15937e-19
1.40691e-19
5.55747e-20
6.72121e-20
2.66568e-20
3.23583e-20
1.22758e-20
1.49388e-20
5.83592e-21
7.09636e-21
2.83262e-21
3.45987e-21
1.39382e-21
1.71871e-21
7.01945e-22
8.7355e-22
3.86442e-22
4.89098e-22
2.12077e-22
1.3468e-22
2.69105e-22
1.30729e-65
1.4194e-22
0.0139131
-0.00200324
9.43984e-05
-9.84354e-07
-4.53493e-06
5.94245e-08
9.80678e-08
6.51844e-09
-2.81814e-10
-7.45362e-11
-4.71674e-12
1.00268e-14
2.41963e-14
2.13435e-15
7.753e-17
-7.19321e-19
-3.65334e-19
-2.47089e-20
-9.35542e-22
-9.94675e-24
1.51694e-24
1.22505e-25
5.39778e-27
1.56119e-28
-4.37909e-32
-3.14078e-31
-2.19095e-32
-1.00183e-33
-2.62538e-35
-2.22932e-37
2.31051e-38
1.67152e-39
7.36485e-41
2.53793e-42
6.54845e-44
8.79065e-46
-1.66004e-47
-2.03854e-48
-9.09498e-50
-2.90548e-51
-8.42405e-53
-1.97988e-54
-2.93604e-56
5.83906e-60
2.38034e-59
1.04433e-60
3.28742e-62
9.58397e-64
-0.00131824
2.86513e-65
1.79016e-22
1.48803e-64
2.81943e-63
-8.08904e-61
3.73438e-59
1.36052e-57
5.42357e-56
-2.06513e-54
-1.6245e-53
-6.08706e-52
7.43843e-50
2.17779e-48
-4.2453e-47
-1.31624e-46
8.74367e-45
1.57611e-43
1.10308e-42
2.52578e-41
-8.73965e-41
7.18032e-39
4.46988e-38
-1.24659e-36
4.24642e-36
-1.74074e-34
1.26403e-33
-1.41766e-32
-6.56318e-32
6.89377e-31
-4.34278e-30
6.91275e-30
1.17973e-30
-1.90627e-28
1.29907e-27
1.02648e-26
1.55638e-26
8.1216e-26
9.02848e-25
2.63726e-24
6.13691e-24
1.31096e-23
2.76214e-23
5.20443e-23
8.76153e-23
1.34166e-22
1.75226e-22
1.86896e-22
1.88642e-22
1.95553e-22
1.72841e-22
0.000138437
0.0642378
-2.67205e-05
0.453371
0.000132512
3.96026e-06
-1.46984e-05
-3.94337e-08
3.23664e-07
2.63746e-08
-6.89224e-10
-2.61227e-10
-1.95665e-11
-1.48117e-13
8.14601e-14
8.64588e-15
3.50692e-16
4.13325e-20
-1.25952e-18
-1.00715e-19
-4.1221e-21
-6.84173e-23
5.30878e-24
5.0605e-25
2.3448e-26
7.38307e-28
4.38265e-30
-1.18414e-30
-8.78938e-32
-4.38776e-33
-1.2764e-34
-1.53174e-36
7.71928e-38
7.16598e-39
3.18781e-40
1.10912e-41
3.17616e-43
4.79486e-45
-4.33456e-47
-8.10706e-48
-3.96372e-49
-1.33539e-50
-3.83856e-52
-9.50447e-54
-1.54167e-55
-5.03388e-58
9.54652e-59
4.82485e-60
1.5202e-61
4.15177e-63
1.15911e-64
3.22469e-63
-1.02428e-60
4.94843e-59
1.79737e-57
6.58985e-56
-2.70403e-54
-2.14726e-53
-6.59875e-52
9.36884e-50
2.55496e-48
-5.50538e-47
-1.65531e-46
1.09533e-44
1.90151e-43
1.24274e-42
2.75925e-41
-1.31521e-40
8.88882e-39
5.45666e-38
-1.50052e-36
5.61368e-36
-2.13541e-34
1.54055e-33
-1.60654e-32
-8.05138e-32
8.36917e-31
-5.36943e-30
8.34064e-30
-8.30588e-31
-2.30659e-28
1.70268e-27
1.31564e-26
2.02346e-26
1.10337e-25
1.16315e-24
3.39107e-24
7.88446e-24
1.68438e-23
3.5498e-23
6.72032e-23
1.12201e-22
1.72396e-22
2.25257e-22
2.40227e-22
2.4116e-22
2.4925e-22
2.18104e-22
1.82784e-64
-4.06851e-06
5.30399e-07
1.1357e-07
3.14717e-09
-6.10773e-10
-7.91398e-11
-3.20832e-12
1.52536e-13
2.90682e-14
1.89278e-15
4.6002e-17
-2.549e-18
-3.9374e-19
-2.19756e-20
-6.65874e-22
4.36934e-24
1.8706e-24
1.17365e-25
4.35329e-27
9.23943e-29
-2.39757e-30
-3.51427e-31
-2.01343e-32
-7.93279e-34
-1.69648e-35
3.80373e-38
2.70838e-38
1.57996e-39
6.21651e-41
1.94275e-42
4.306e-44
3.24182e-46
-2.62715e-47
-1.93177e-48
-7.70634e-50
-2.29373e-51
-6.08696e-53
-1.2819e-54
-1.4369e-56
2.35359e-58
2.3584e-59
8.89646e-61
2.55973e-62
6.85735e-64
-9.63166e-62
-1.46359e-59
8.026e-58
6.59613e-57
-3.41301e-55
-1.74534e-53
1.77267e-52
5.38806e-52
-1.59975e-49
-6.30601e-48
-8.453e-47
1.38064e-46
-6.42309e-45
-1.76606e-44
-1.24912e-41
-1.68275e-40
-8.89497e-40
-2.04525e-39
1.78946e-37
1.25143e-36
4.63259e-35
-7.44035e-34
2.68804e-33
1.04062e-31
-4.27238e-31
1.29098e-30
-9.04544e-30
1.5101e-29
-2.17012e-28
5.06908e-28
4.8155e-27
2.32314e-26
2.47333e-26
4.71309e-25
2.14204e-24
5.19113e-24
1.1838e-23
2.42937e-23
4.98243e-23
8.68161e-23
1.40835e-22
2.01184e-22
2.38776e-22
2.41506e-22
2.42585e-22
2.44663e-22
1.85297e-22
-0.00531667
-0.00556985
4.9867e-64
0.594879
-0.00158738
0.942248
1.00338
0.979243
1.00787
1.01349
1.00262
1.00786
0.999932
1.00126
0.999639
0.999655
0.999834
0.999909
0.999943
1.0002
0.999968
1.00031
0.999965
1.0003
0.999964
1.0003
0.999933
1.00026
0.99992
1.0002
0.999926
1.00023
0.999916
1.00022
0.999911
1.00019
0.999906
1.0002
0.999901
1.00018
0.999907
1.00019
0.999923
1.0002
0.999909
1.00019
0.999904
1.00018
0.999917
1.0002
0.999913
1.0002
0.99992
1.0002
0.999925
1.00022
0.99991
1.0002
0.999924
1.0002
0.999923
1.00021
0.99991
1.00018
0.999917
1.00021
0.999912
1.00021
0.999912
1.0002
0.999912
1.00022
0.999901
1.00019
0.999911
1.00019
0.999917
1.0002
0.99991
1.00018
0.999905
1.00019
0.999918
1.0002
0.999909
1.0002
0.999918
1.0002
0.999922
1.00021
0.999911
1.0002
0.999933
1.00022
0.999929
1.00025
0.999927
1.00022
0.999931
1.00024
0.999922
1.00022
0.999924
1.00023
0.999944
1.00026
0.999927
1.00023
0.999932
1.00022
0.99993
1.00023
0.999905
1.00018
0.999907
1.00018
0.999918
1.0002
0.999907
1.0002
0.999917
1.0002
0.999922
1.00021
0.999914
1.0002
0.99993
1.00022
0.999931
1.00023
0.999917
1.00021
0.999929
1.00024
0.999914
1.00021
0.999921
1.00021
0.999936
1.00025
0.99992
1.00021
0.999929
1.00021
0.999928
1.00022
0.999911
1.00018
0.999896
1.00018
0.999896
1.00017
0.999904
1.0002
0.999924
1.00022
0.999929
1.00024
0.999921
1.00022
0.999934
1.00023
0.999919
1.00021
0.999899
1.00016
0.999912
1.00019
0.999911
1.00019
0.999916
1.0002
0.999926
1.00023
0.999922
1.00021
0.999922
1.00021
0.99992
1.0002
0.999907
1.00018
0.999898
1.00019
0.999907
1.00019
0.999908
1.00021
0.999937
1.00023
0.999953
1.00026
0.999961
1.00026
1.00006
1.00031
1.00038
1.00071
1.00046
7.00071e-64
0.00261226
0.000215339
0.235564
1.94828e-06
-6.34654e-06
-3.16579e-07
7.59481e-08
9.37762e-09
2.16353e-10
-4.90589e-11
-5.7937e-12
-2.6725e-13
5.76876e-15
1.59167e-15
1.16e-16
4.4358e-18
-4.86199e-20
-1.52151e-20
-1.05982e-21
-3.88698e-23
-1.73816e-25
7.10681e-26
5.62701e-27
2.26536e-28
6.06336e-30
-3.29939e-33
-1.05396e-32
-7.96941e-34
-3.5896e-35
-1.0458e-36
-1.44494e-38
3.69908e-40
4.52236e-41
2.02919e-42
7.32794e-44
1.96951e-45
3.45662e-47
-1.91264e-49
-4.26496e-50
-2.23037e-51
-6.93799e-53
-1.9571e-54
-5.08433e-56
-8.31539e-58
-3.33385e-60
3.52337e-61
2.01715e-62
5.2044e-64
-1.80475e-61
-0.00447288
-0.00530849
-0.00421173
1.84623e-65
2.56985e-22
3.16802e-22
-1.03708e-05
-1.576e-05
0.517423
-2.11078e-59
1.37616e-57
1.03515e-56
-6.58197e-55
-2.73191e-53
3.12552e-52
2.32999e-51
-2.46414e-49
-1.19349e-47
-1.16702e-46
7.06588e-46
-6.15146e-45
-6.06413e-44
-2.00938e-41
-2.80772e-40
-1.02503e-39
-3.19959e-39
2.28156e-37
2.64639e-36
6.04059e-35
-1.08454e-33
3.77497e-33
1.72929e-31
-6.41905e-31
1.50762e-30
-1.28871e-29
2.0379e-29
-3.63869e-28
1.04931e-27
8.62232e-27
3.64128e-26
4.59082e-26
8.35423e-25
3.48685e-24
8.211e-24
1.85969e-23
3.81494e-23
7.78529e-23
1.33192e-22
2.13519e-22
3.03709e-22
3.5028e-22
3.56351e-22
3.56378e-22
3.62146e-22
2.44454e-22
3.4064e-22
0.0528742
0.185677
0.0255117
5.68808e-05
0.00044934
7.40599e-05
3.37052e-05
0.999761
1.00039
0.998495
0.99888
0.997655
0.99643
1.00538
1.00194
1.00982
1.00924
1.006
1.01029
0.98952
1.00226
0.951232
0.973885
0.886298
0.919216
0.798409
0.837426
0.702961
0.743253
0.600921
0.643286
0.496913
0.536715
0.399073
0.434763
0.311735
0.342956
0.238285
0.263833
0.179499
0.199291
0.131239
0.147377
0.0943051
0.106356
0.0666697
0.0753727
0.0471909
0.0534049
0.0324865
0.0371265
0.0218514
0.0250041
0.0147547
0.0169264
0.00972154
0.0111955
0.00629209
0.00729874
0.00408972
0.00473814
0.00264202
0.00305694
0.00165842
0.00193718
0.00103579
0.00120889
0.000639366
0.00074742
0.000391052
0.000459109
0.000237692
0.000279433
0.000144622
0.000169525
8.60832e-05
0.00010168
5.09213e-05
6.02194e-05
2.98051e-05
3.52048e-05
1.77614e-05
2.09997e-05
1.04697e-05
1.2337e-05
6.04378e-06
7.18903e-06
3.47488e-06
4.13002e-06
1.97409e-06
2.34812e-06
1.10198e-06
1.31805e-06
6.24765e-07
7.45434e-07
3.54698e-07
4.21338e-07
1.96424e-07
2.35042e-07
1.08568e-07
1.30041e-07
5.99759e-08
7.16994e-08
3.34724e-08
3.9931e-08
1.81964e-08
2.19041e-08
9.58206e-09
1.1518e-08
5.34552e-09
6.38755e-09
2.90951e-09
3.49083e-09
1.53854e-09
1.85448e-09
8.26238e-10
9.93195e-10
4.46811e-10
5.34977e-10
2.36688e-10
2.85683e-10
1.25457e-10
1.51258e-10
6.56956e-11
7.92085e-11
3.36949e-11
4.0817e-11
1.78775e-11
2.15663e-11
9.37222e-12
1.12727e-11
4.82723e-12
5.84126e-12
2.48263e-12
3.00708e-12
1.27789e-12
1.54333e-12
6.66177e-13
8.02363e-13
3.38701e-13
4.11568e-13
1.69296e-13
2.04998e-13
8.78335e-14
1.06247e-13
4.43094e-14
5.36071e-14
2.19863e-14
2.67462e-14
1.11602e-14
1.35317e-14
5.73884e-15
6.92074e-15
2.8517e-15
3.46699e-15
1.43011e-15
1.7362e-15
7.08153e-16
8.5865e-16
3.50893e-16
4.26842e-16
1.73899e-16
2.11539e-16
8.69087e-17
1.05211e-16
4.26993e-17
5.19695e-17
2.08908e-17
2.54506e-17
1.01186e-17
1.22889e-17
5.05271e-18
6.13926e-18
2.49712e-18
3.02093e-18
1.2019e-18
1.4661e-18
5.80488e-19
7.07729e-19
2.75878e-19
3.35981e-19
1.28061e-19
1.5688e-19
6.13374e-20
7.48745e-20
2.93339e-20
3.56449e-20
1.37548e-20
1.68136e-20
6.47269e-21
7.9254e-21
3.17753e-21
3.87097e-21
1.67088e-21
2.02389e-21
9.23224e-22
1.13155e-21
0.759733
3.17487e-64
-0.000426486
0.806015
1.08527e-63
0.000225206
2.75059e-63
2.17815e-64
-2.09868e-06
7.43973e-08
3.18072e-08
2.02799e-09
-6.89639e-11
-1.95245e-11
-1.38777e-12
-2.72905e-14
4.47855e-15
4.63159e-16
2.60904e-17
4.13601e-19
-4.37504e-20
-4.22299e-21
-2.30031e-22
-4.86237e-24
1.6216e-25
2.2504e-26
1.23331e-27
4.07725e-29
6.37848e-31
-2.87414e-32
-3.24963e-33
-1.78583e-34
-6.65281e-36
-1.40905e-37
-3.66887e-40
1.52851e-40
1.02547e-41
4.20651e-43
1.1937e-44
2.93096e-46
2.4411e-48
-1.4163e-49
-1.02041e-50
-4.25289e-52
-1.19691e-53
-3.15936e-55
-7.11013e-57
-7.55028e-59
9.11851e-61
9.07511e-62
3.72316e-63
-2.30535e-61
-6.38618e-06
-1.67527e-60
1.03677e-58
2.93948e-57
9.11386e-56
-4.83159e-54
-2.70497e-53
-7.33593e-52
1.496e-49
3.63558e-48
-9.23939e-47
-2.04667e-46
1.8116e-44
2.925e-43
1.48663e-42
3.84422e-41
-1.81838e-40
1.48403e-38
8.84995e-38
-2.37091e-36
9.6079e-36
-3.77455e-34
2.89655e-33
-2.08274e-32
-1.80394e-31
1.49795e-30
-9.62621e-30
1.6715e-29
-1.79032e-29
-2.6809e-28
3.03777e-27
2.17412e-26
2.94806e-26
2.15317e-25
1.93137e-24
5.36733e-24
1.22908e-23
2.61218e-23
5.47434e-23
1.05256e-22
1.70252e-22
2.58939e-22
3.31282e-22
3.53879e-22
3.48482e-22
3.6635e-22
3.1887e-22
-1.44853e-06
4.70004e-15
4.73579e-63
-1.01821e-12
5.51542e-22
-1.81485e-05
-1.87256e-11
4.53843e-22
4.52442e-22
4.51505e-22
4.40177e-22
3.80897e-22
2.68237e-22
1.67252e-22
9.67977e-23
4.75967e-23
2.3089e-23
1.01738e-23
4.32015e-24
1.02094e-24
5.48391e-26
4.4933e-26
1.04067e-26
1.22149e-27
-4.52495e-28
2.59696e-29
-1.66816e-29
2.10202e-30
-8.20574e-31
2.17638e-31
5.05217e-33
-1.45286e-33
8.14539e-35
2.96843e-36
3.29336e-37
-3.86389e-39
-1.47623e-39
-3.45411e-40
-2.54589e-41
-1.67134e-44
-8.62689e-45
6.72369e-46
-1.60119e-46
-1.38864e-47
-3.14329e-49
1.8603e-51
3.99164e-52
-3.61969e-53
-8.05347e-55
1.38223e-56
2.77812e-63
7.9348e-62
1.34837e-60
-2.84956e-59
-4.31749e-57
-2.14297e-55
-8.72968e-54
-3.31438e-52
-8.75696e-51
-1.55943e-49
9.38697e-50
1.77621e-46
8.43915e-45
3.23997e-43
8.74036e-42
1.58772e-40
9.38876e-40
-8.07568e-38
-4.82987e-36
-1.43054e-34
-3.01833e-33
-3.87431e-32
1.75289e-31
2.7808e-29
9.96274e-28
2.13499e-26
2.29118e-25
-1.88017e-24
-1.68759e-22
-3.71845e-21
-5.06055e-20
1.49725e-20
1.91054e-17
4.05391e-16
5.00241e-15
3.89894e-22
4.59183e-22
4.4208e-22
4.48453e-22
4.16735e-22
3.23837e-22
2.13982e-22
1.30929e-22
6.82294e-23
3.26491e-23
1.52624e-23
6.6457e-24
2.36361e-24
2.57679e-25
3.68752e-26
2.65635e-26
3.59301e-27
-3.78318e-28
-1.59287e-29
1.94737e-29
-1.16562e-29
1.82338e-30
-2.04776e-31
-2.83908e-32
3.46268e-33
-4.5572e-34
1.23012e-35
-3.02898e-36
1.11464e-37
1.8519e-38
-2.88776e-40
5.02905e-41
2.07737e-42
3.79525e-43
2.30775e-44
-3.21136e-46
-1.2044e-46
4.89476e-48
1.96664e-49
-1.05461e-51
-4.30708e-53
-2.19514e-60
1.63036e-62
3.54932e-61
1.88394e-60
-4.35088e-58
-3.29367e-56
-1.37294e-54
-5.20858e-53
-1.80878e-51
-3.97293e-50
-4.44983e-49
1.63039e-47
1.32208e-45
5.39752e-44
1.64379e-42
4.13026e-41
5.1945e-40
-5.04884e-39
-6.86766e-37
-2.75135e-35
-6.78923e-34
-1.12688e-32
-7.73371e-32
3.34666e-30
1.6656e-28
4.8895e-27
7.64138e-26
3.49653e-25
-2.34065e-23
-8.60465e-22
-1.47937e-20
-1.12801e-19
2.40405e-18
9.33194e-17
1.52017e-15
1.17147e-14
-1.50611e-13
-4.85211e-12
-5.66262e-11
-7.80596e-11
7.30836e-09
9.02169e-08
1.50071e-08
1.14873e-09
2.97355e-08
1.62594e-07
-1.34765e-10
1.78301e-57
-2.90273e-59
1.25279e-58
3.96154e-57
1.28369e-55
-6.19565e-54
0.000225465
0.982774
1.01046
1.00412
1.00692
1.01434
1.00183
1.00536
1.00038
1.00076
1.00042
1.00009
1.00061
1.00038
1.00074
1.00069
1.00076
1.00078
1.00076
1.00085
1.00075
1.00085
1.00079
1.0008
1.00074
1.0008
1.00077
1.00078
1.00074
1.00079
1.00073
1.00081
1.00074
1.00076
1.00071
1.00083
1.00074
1.00081
1.00073
1.00082
1.00071
1.0008
1.00074
1.0008
1.00074
1.00081
1.00072
1.00078
1.00074
1.00083
1.00072
1.0008
1.00074
1.00078
1.00075
1.00082
1.00077
1.0008
1.00073
1.00079
1.00077
1.00077
1.00072
1.00078
1.00076
1.00079
1.00075
1.00077
1.00074
1.00081
1.00073
1.00081
1.00073
1.0008
1.00071
1.0008
1.00074
1.00079
1.00073
1.00082
1.00073
1.00077
1.00075
1.00082
1.00074
1.0008
1.00076
1.00077
1.00072
1.00082
1.00077
1.00076
1.00073
1.00079
1.00077
1.00076
1.00072
1.00077
1.00073
1.00078
1.00074
1.00077
1.00072
1.00077
1.00075
1.00083
1.00074
1.00082
1.00072
1.0008
1.00074
1.00079
1.00072
1.00081
1.00073
1.00077
1.00075
1.00082
1.00073
1.0008
1.00075
1.00078
1.00076
1.00081
1.00076
1.00079
1.00074
1.00077
1.00075
1.00078
1.00073
1.00077
1.00072
1.00079
1.00073
1.00077
1.00071
1.00077
1.00076
1.00083
1.00075
1.0008
1.00074
1.00082
1.00076
1.00075
1.00075
1.00081
1.00075
1.00077
1.00075
1.00081
1.00072
1.00079
1.00074
1.00079
1.00074
1.00083
1.00073
1.0008
1.00072
1.00081
1.00074
1.00078
1.00074
1.00079
1.00071
1.0008
1.00072
1.00078
1.00071
1.00081
1.00078
1.00083
1.00077
1.00083
1.00075
1.00081
1.00077
1.00074
1.00075
1.00081
1.00079
1.00073
1.0008
1.00077
1.00073
1.00068
1.00061
1.00003
1.00058
-1.06039e-53
-7.65985e-06
-3.36208e-12
2.61536e-58
7.02943e-22
-2.64712e-13
6.67823e-09
4.02426e-10
-1.67825e-06
-1.73075e-08
1.81824e-08
1.94384e-08
1.90245e-09
6.05179e-09
1.51387e-09
6.58817e-22
4.30226e-22
-8.66675e-12
-9.89009e-12
2.43692e-63
-1.01877e-12
-8.83279e-13
5.61361e-22
-5.69812e-15
4.76267e-16
6.33315e-17
3.44233e-18
7.56607e-20
-4.67154e-21
-5.92099e-22
-3.30506e-23
-9.50102e-25
1.82467e-27
2.19861e-27
1.62373e-28
6.65655e-30
1.7087e-31
4.62193e-34
-2.53071e-34
-1.89037e-35
-7.75057e-37
-2.17893e-38
-4.36559e-40
4.78334e-42
7.55454e-43
4.41343e-44
1.59582e-45
4.21045e-47
8.17058e-49
4.20078e-51
-5.48925e-52
-3.058e-53
-1.22418e-54
-3.64221e-56
-8.21679e-58
-1.35906e-59
-1.49491e-61
4.65462e-06
-9.12598e-06
1.73168e-55
6.62678e-57
-4.13734e-59
3.17953e-58
2.19994e-56
2.42482e-55
-1.52539e-54
-1.88754e-54
-1.36516e-53
-3.50214e-60
-5.68933e-59
-5.43438e-53
-1.07517e-51
3.23537e-49
6.62676e-48
-2.0745e-46
-3.81226e-46
3.9383e-44
6.02607e-43
2.32557e-42
6.45122e-41
-4.11775e-40
3.16936e-38
1.84187e-37
-4.81442e-36
2.05983e-35
-8.06827e-34
6.03905e-33
-3.93121e-32
-4.40339e-31
3.28415e-30
-2.0305e-29
3.80762e-29
-5.87466e-29
-3.80315e-28
6.47326e-27
4.44404e-26
5.29353e-26
4.94919e-25
3.98523e-24
1.06386e-23
2.40045e-23
5.09809e-23
1.07547e-22
1.99204e-22
3.29258e-22
4.91704e-22
6.13871e-22
6.46839e-22
6.49544e-22
6.78324e-22
8.34893e-22
-4.91549e-06
-1.1264e-05
-5.03819e-06
0.998915
0.999316
0.997173
0.996531
1.00397
1.001
1.00766
1.00741
1.00593
1.00974
0.994821
1.00616
0.961555
0.982792
0.900348
0.931779
0.816085
0.853824
0.722805
0.761903
0.621645
0.663492
0.516499
0.556596
0.416284
0.453685
0.326124
0.358537
0.251078
0.277554
0.189712
0.210685
0.138784
0.155736
0.100778
0.113401
0.0713155
0.080647
0.0504474
0.0570879
0.0347693
0.0395905
0.0236285
0.0270567
0.015812
0.018141
0.0104813
0.0120859
0.00682871
0.00790981
0.00447355
0.00517356
0.00285439
0.00330479
0.00180767
0.00210839
0.0011274
0.00131397
0.000697637
0.000817025
0.000424819
0.000499984
0.000260528
0.000306185
0.000158471
0.000186123
9.35895e-05
0.000110795
5.61955e-05
6.63977e-05
3.28064e-05
3.88918e-05
1.95683e-05
2.31611e-05
1.14224e-05
1.3506e-05
6.69547e-06
7.94977e-06
3.84779e-06
4.56788e-06
2.18061e-06
2.60244e-06
1.22114e-06
1.46021e-06
7e-07
8.34724e-07
3.93236e-07
4.68821e-07
2.15234e-07
2.5843e-07
1.20907e-07
1.44632e-07
6.71248e-08
8.04489e-08
3.71278e-08
4.45244e-08
2.02198e-08
2.43012e-08
1.07886e-08
1.30135e-08
5.95867e-09
7.13821e-09
3.24428e-09
3.90261e-09
1.71281e-09
2.06906e-09
9.33717e-10
1.12489e-09
4.9655e-10
5.97012e-10
2.67607e-10
3.22704e-10
1.41546e-10
1.70528e-10
7.39315e-11
8.9466e-11
3.8177e-11
4.63788e-11
2.03101e-11
2.4536e-11
1.05474e-11
1.2745e-11
5.37922e-12
6.53405e-12
2.81517e-12
3.40779e-12
1.45397e-12
1.76238e-12
7.49811e-13
9.08844e-13
3.80336e-13
4.61272e-13
1.94647e-13
2.36652e-13
9.89744e-14
1.20134e-13
5.0125e-14
6.09796e-14
2.50353e-14
3.04942e-14
1.28827e-14
1.56643e-14
6.46855e-15
7.83642e-15
3.28125e-15
4.00015e-15
1.64284e-15
1.99398e-15
8.12509e-16
9.89865e-16
3.98926e-16
4.87788e-16
2.00054e-16
2.43543e-16
9.9985e-17
1.21395e-16
4.84478e-17
5.92129e-17
2.41418e-17
2.94212e-17
1.16326e-17
1.42083e-17
5.81245e-18
7.09415e-18
2.82585e-18
3.43766e-18
1.38623e-18
1.69148e-18
6.68994e-19
8.153e-19
3.13776e-19
3.83489e-19
1.49267e-19
1.8249e-19
7.13774e-20
8.73643e-20
3.37921e-20
4.12224e-20
1.56736e-20
1.92643e-20
7.59154e-21
9.2762e-21
3.8007e-21
4.63908e-21
2.01175e-21
2.44247e-21
6.3662e-05
3.82544e-05
4.60933e-22
-0.00446565
-1.12101e-11
-2.08161e-11
-0.000862431
9.69711e-06
5.37741e-22
1.81026e-63
0.57248
5.88286e-63
2.97378e-56
0.873182
8.31371e-22
2.44397e-10
4.40565e-11
-3.66094e-07
2.9643e-08
3.08885e-57
-1.31836e-06
-3.24708e-12
5.99617e-22
-4.95146e-14
2.86109e-16
2.03837e-16
1.62788e-17
6.22617e-19
-1.53487e-21
-1.99764e-21
-1.50839e-22
-6.41662e-24
-1.04182e-25
5.55013e-27
6.41993e-28
3.48475e-29
1.14026e-30
2.00038e-32
-6.32105e-34
-7.94685e-35
-4.00422e-36
-1.33946e-37
-3.37572e-39
-2.93487e-41
2.71755e-42
1.96795e-43
8.68907e-45
2.68493e-46
6.36696e-48
8.61169e-50
-1.22306e-51
-1.42983e-52
-6.1321e-54
-2.11568e-55
-5.685e-57
-1.15042e-58
-1.66669e-60
-2.06064e-13
-4.22877e-61
7.35425e-22
0.0179928
-0.00331328
8.86759e-57
4.01413e-57
2.05014e-63
0.921368
1.01182e-51
7.05658e-52
-5.65499e-53
-1.61625e-51
-7.47504e-53
6.06986e-51
-5.01693e-49
-2.55872e-47
-2.1317e-46
2.19611e-45
-4.95812e-45
-7.08056e-44
-4.19255e-41
-5.50193e-40
-1.53938e-39
-6.10471e-39
4.1257e-37
6.01562e-36
1.01187e-34
-2.05585e-33
6.99166e-33
3.46595e-31
-1.17449e-30
2.13628e-30
-2.24065e-29
3.1822e-29
-7.38588e-28
2.47987e-27
1.80729e-26
6.90217e-26
1.0499e-25
1.81485e-24
6.96781e-24
1.61256e-23
3.64277e-23
7.49451e-23
1.50563e-22
2.55003e-22
4.103e-22
5.6764e-22
6.46965e-22
6.56189e-22
6.68549e-22
0.000197348
5.40122e-51
1.13278e-21
0.0739023
0.000191174
8.58761e-22
8.25475e-22
8.18346e-22
7.70514e-22
6.15807e-22
4.118e-22
2.48641e-22
1.33415e-22
6.31834e-23
2.97066e-23
1.31628e-23
4.8721e-24
5.88348e-25
6.60726e-26
5.41333e-26
7.64414e-27
-5.80397e-28
-6.17454e-29
4.51075e-29
-2.47025e-29
4.01002e-30
-5.08676e-31
-5.44937e-32
7.28613e-33
-9.75645e-34
2.65398e-35
-6.15843e-36
2.33184e-37
3.96297e-38
-6.60469e-40
8.40965e-41
3.38222e-42
-8.67111e-61
-7.37684e-59
-3.94451e-57
-1.56787e-55
-4.88965e-54
-1.24893e-52
-1.74515e-51
3.84837e-50
4.16207e-48
1.93564e-46
6.81686e-45
1.69212e-43
2.85319e-42
1.84504e-42
-2.16006e-39
-9.73499e-38
-3.22159e-36
-7.12681e-35
-8.3174e-34
7.97446e-33
7.88162e-31
2.77025e-29
5.84231e-28
7.08257e-27
-3.32789e-26
-4.49226e-24
-1.25845e-22
-2.02899e-21
-1.05174e-20
3.8431e-19
1.31661e-17
4.31395e-08
-2.76646e-12
8.41868e-22
8.30443e-22
8.1491e-22
7.1316e-22
5.12721e-22
3.1891e-22
1.87443e-22
9.2663e-23
4.51884e-23
2.0028e-23
8.58034e-24
2.18924e-24
1.2578e-25
8.6065e-26
2.17245e-26
2.87884e-27
-9.25369e-28
4.1206e-29
-2.93169e-29
3.10418e-30
-1.516e-30
4.3491e-31
9.38635e-33
-2.75816e-33
1.41224e-34
6.77219e-36
6.04873e-37
-7.34707e-39
-2.28821e-39
-6.7912e-40
-5.27737e-41
-0.00673782
-0.00307955
-0.00982602
4.57744e-44
-8.04565e-45
2.2805e-45
-2.9598e-46
-2.95244e-47
-6.30109e-49
-7.99961e-60
-5.51841e-58
-2.61905e-56
-9.33493e-55
-2.52512e-53
-5.39863e-52
-1.62389e-51
4.72273e-49
2.90506e-47
1.20349e-45
3.61348e-44
7.08257e-43
8.30047e-42
-2.18282e-40
-1.49003e-38
-5.93908e-37
-1.60171e-35
-2.61967e-34
-1.34111e-33
1.0327e-31
4.9889e-30
1.36967e-28
2.21322e-27
1.39086e-26
-5.41883e-25
-2.56854e-23
-5.44667e-22
-5.99425e-21
2.25582e-20
2.47529e-18
5.60179e-17
5.69125e-16
-1.60089e-15
-1.49496e-64
0.647217
-5.44304e-61
-1.97148e-07
4.5467e-08
6.80892e-63
1.99332e-16
1.03639e-15
-3.00115e-14
-4.29972e-62
-4.62596e-60
7.75886e-43
5.01264e-44
-6.19908e-46
-2.72426e-46
-8.96206e-53
8.97558e-48
4.24158e-49
0.000439554
3.36437e-09
1.24735e-21
1.20266e-42
1.00249
1.00793
1.011
1.00273
1.00702
0.999834
1.00069
0.999151
0.998382
0.99929
0.998082
0.999516
0.998456
0.999651
0.998638
0.99964
0.998737
0.999677
0.998835
0.999669
0.998895
0.99961
0.998796
0.999717
0.998918
0.999655
0.998879
0.999633
0.998822
0.999785
0.998866
0.999701
0.99894
0.99976
0.998905
0.999774
0.998977
0.999695
0.998939
0.999784
0.99897
0.999741
0.998997
0.999709
0.998869
0.99974
0.998929
0.999744
0.998966
0.999749
0.998947
0.999702
0.998936
0.999644
0.998874
0.999615
0.998788
0.999696
0.998908
0.999622
0.998845
0.999656
0.998819
0.999729
0.998872
0.99971
0.998912
0.999738
0.998927
0.999761
0.998942
0.999691
0.998933
0.999792
0.998965
0.999728
0.998998
0.999714
0.998896
0.999725
0.99894
0.999689
0.998897
0.999702
0.998869
0.999677
0.998915
0.999677
0.998906
0.999626
0.998823
0.999746
0.998938
0.999673
0.998906
0.999749
0.998952
0.999728
0.998968
0.999685
0.998841
0.999729
0.998901
0.999752
0.998944
0.9997
0.998943
0.999791
0.99898
0.999719
0.998989
0.999706
0.998882
0.99972
0.998928
0.999693
0.998889
0.999688
0.99887
0.999667
0.998903
0.999644
0.998858
0.999669
0.998843
0.999731
0.998955
0.999687
0.998906
0.999748
0.99896
0.99975
0.998983
0.999676
0.99886
0.999729
0.998922
0.999676
0.998894
0.999635
0.998839
0.99971
0.998873
0.999655
0.998892
0.999675
0.998826
0.999702
0.99889
0.999694
0.998873
0.999715
0.998883
0.999766
0.998958
0.999749
0.998984
0.999731
0.998971
0.999764
0.99896
0.999719
0.998948
0.999772
0.998991
0.999788
0.998985
0.999664
0.998856
0.999712
0.998873
0.999657
0.998893
0.999583
0.998799
0.999673
0.9988
0.999592
0.998845
0.999675
0.998791
0.999594
0.998839
0.999556
2.95352e-08
0.998917
-9.07735e-64
0.113486
-9.39444e-61
7.2121e-22
0.228599
1.14841e-09
-8.71825e-13
-3.38169e-07
-2.93586e-06
4.41432e-56
8.56297e-12
2.67674e-12
-1.18789e-06
-3.04564e-06
-1.04485e-06
-3.00602e-60
-1.45215e-13
-7.13069e-15
-5.76534e-08
-2.47466e-07
-2.45021e-08
6.40404e-17
8.59173e-18
4.9187e-19
1.55855e-20
-2.83887e-22
-6.34892e-23
-4.42886e-24
-1.68939e-25
-2.86711e-27
1.35779e-28
1.61163e-29
8.75132e-31
3.09835e-32
6.99353e-34
-5.8074e-36
-1.44679e-36
-7.61643e-38
-3.10591e-39
-8.75665e-41
-1.41624e-42
2.30916e-44
2.94106e-45
1.36238e-46
4.75783e-48
1.28222e-49
2.26173e-51
1.06858e-53
-1.42717e-54
-8.62082e-56
-2.96316e-57
-4.82689e-13
-4.545e-13
1.03158e-21
-0.00714142
-7.63681e-59
1.19249e-47
8.41687e-22
-1.1436e-52
-1.17334e-51
-0.000247534
-8.06399e-59
6.97002e-49
-1.02764e-48
-1.27465e-48
1.61173e-47
-4.59228e-46
-6.42455e-46
8.46157e-44
7.20561e-45
6.53386e-45
1.54267e-42
-1.44742e-59
-9.80966e-60
2.92208e-42
1.11354e-40
-9.64223e-40
6.72351e-38
3.74037e-37
-9.66859e-36
4.34248e-35
-1.66859e-33
1.2872e-32
-7.39108e-32
-1.03476e-30
7.08377e-30
-4.3479e-29
8.56549e-29
-1.63741e-28
-4.37406e-28
1.35356e-26
9.02723e-26
9.73368e-26
1.12948e-24
8.11431e-24
2.07634e-23
4.72716e-23
9.936e-23
2.06436e-22
3.81111e-22
6.29184e-22
9.33809e-22
1.14025e-21
1.19758e-21
1.1998e-21
1.49175e-56
5.86395e-56
1.53904e-50
1.50731e-50
9.13896e-49
0.99733
1.2389e-07
1.00284
1.00009
1.0061
1.00551
1.00702
1.00946
1.00118
1.01056
0.972254
0.992148
0.914076
0.945472
0.833721
0.870712
0.74312
0.783863
0.641778
0.685463
0.536019
0.578625
0.435588
0.475386
0.34293
0.377071
0.265992
0.294143
0.200984
0.224127
0.147578
0.165865
0.108225
0.121532
0.0766617
0.0871161
0.0539859
0.0612292
0.0373274
0.0426651
0.025484
0.029309
0.01707
0.0196881
0.0114359
0.0132205
0.0074739
0.00870011
0.00488466
0.00566227
0.00310322
0.00362474
0.00195611
0.00229163
0.00122512
0.00143928
0.000766194
0.000901891
0.000468776
0.000552726
0.000290258
0.000342113
0.000174858
0.000207514
0.00010336
0.000122875
6.30095e-05
7.44379e-05
3.67654e-05
4.3858e-05