/*--------------------------------*- C++ -*----------------------------------*\
  =========                 |
  \\      /  F ield         | OpenFOAM: The Open Source CFD Toolbox
   \\    /   O peration     | Website:  https://openfoam.org
    \\  /    A nd           | Version:  7
     \\/     M anipulation  |
\*---------------------------------------------------------------------------*/
FoamFile
{
    version     2.0;
    format      ascii;
    class       volScalarField;
    location    "0.62";
    object      T;
}
// * * * * * * * * * * * * * * * * * * * * * * * * * * * * * * * * * * * * * //

dimensions      [0 0 0 1 0 0 0];

internalField   nonuniform List<scalar> 
46572
(
0
0
0
0
0
0
0
0
0
0
0
0
0
0
0
0
0
0
0
0
0
0
0
0
0
0
0
0
0
0
0
0
0
0
0
0
0
0
0
0
0
0
0
0
0
0
0
0
0
0
0
0
0
0
0
0
0
0
0
0
0
0
0
0
0
0
0
0
0
0
0
0
0
0
0
0
0
0
0
0
0
0
0
0
0
0
0
0
0
0
0
0
0
0
0
0
0
0
0
0
0
0
0
0
0
0
0
0
0
0
0
0
0
0
0
0
0
0
0
0
0
0
0
0
0
0
0
0
0
0
0
0
0
0
0
0
0
0
0
0
0
0
0
0
0
0
0
0
0
0
0
0
0
0
0
0
0
0
0
0
0
0
0
0
0
0
0
0
0
0
0
0
0
0
0
0
0
0
0
0
0
0
0
0
0
0
0
0
0
0
0
0
0
0
0
0
0
0
0
0
0
0
0
0
0
0
0
0
0
0
0
0
0
0
0
0
0
0
0
0
0
0
0
0
0
0
0
0
0
0
0
0
0
0
0
0
0
0
0
0
0
0
0
0
0
0
0
0
0
0
0
0
0
0
0
0
0
0
0
0
0
0
0
0
0
-3.13254e-149
0
6.80176e-138
8.5022e-138
2.2517e-137
2.81462e-137
1.49548e-137
1.90875e-137
-7.50919e-136
2.35985e-135
-6.6091e-134
-6.55998e-134
9.76645e-132
2.69116e-132
-1.40166e-128
-1.78199e-128
-3.52149e-127
1.27693e-126
3.08462e-126
1.60146e-125
4.35163e-125
4.11485e-125
6.02185e-122
7.35995e-122
6.40964e-122
7.9127e-122
4.08932e-122
5.1705e-122
5.97644e-122
1.82549e-122
8.72442e-120
1.02715e-119
6.86671e-120
8.54305e-120
-1.68471e-119
7.65953e-119
-9.82601e-119
6.05219e-118
-7.64786e-118
4.03167e-118
-1.41647e-116
6.02334e-117
-5.56075e-116
1.13812e-115
-2.49147e-114
-2.9991e-114
-1.17663e-113
-2.15919e-113
-6.35298e-114
-1.47886e-113
5.92371e-113
-2.35133e-113
4.77723e-111
4.13036e-111
3.45447e-111
1.82705e-111
2.49755e-111
1.29802e-111
1.2891e-111
-1.04903e-111
4.41116e-110
-7.80812e-110
-1.69693e-109
9.80852e-109
-8.78034e-109
3.72861e-108
-9.9578e-107
3.45904e-107
-2.75927e-106
-1.72731e-106
-1.87065e-106
-4.24642e-107
-5.33456e-106
1.2828e-105
-1.70827e-105
5.99166e-106
-4.45159e-105
2.50174e-105
-9.83006e-105
5.23998e-105
-1.31224e-104
1.20034e-104
-5.34924e-104
-3.44817e-104
-3.73862e-104
-2.23357e-104
-3.09434e-104
2.71737e-105
-4.38397e-104
-2.25933e-104
-3.32632e-104
-1.29939e-104
-3.38615e-104
1.68742e-104
-1.75113e-103
-1.35737e-103
-1.19065e-103
-8.41499e-104
-1.24134e-103
8.11931e-104
-2.79138e-103
-4.69702e-104
-3.17456e-103
-2.00354e-103
-2.55675e-103
-1.68353e-103
-3.05638e-103
2.27883e-103
-8.01126e-103
-8.17347e-103
1.26139e-102
-6.45592e-102
2.41536e-102
-2.33343e-102
4.62583e-102
-7.91567e-102
1.37897e-102
1.61746e-101
-1.5835e-101
7.00679e-101
-7.31919e-101
1.10044e-100
-3.17333e-100
6.07147e-101
-1.22824e-99
3.76232e-100
-1.21341e-99
5.27219e-100
-1.14578e-99
8.05742e-100
-4.66435e-99
2.9798e-99
-8.26862e-99
-2.94465e-99
-5.87238e-99
-2.77636e-101
-1.18898e-98
2.32081e-98
-2.66593e-98
1.80262e-98
-3.34129e-98
3.562e-98
-3.84097e-98
4.11189e-98
-5.66483e-98
9.99939e-98
-2.65636e-97
5.17458e-98
-1.58449e-96
1.00904e-96
-1.44788e-96
7.56792e-97
-1.31406e-96
6.55798e-97
-1.18359e-96
6.35052e-97
-4.10099e-96
1.5923e-96
-7.11903e-96
-3.1729e-96
-5.1184e-96
-1.34952e-96
-5.99016e-96
5.90227e-96
-1.11182e-95
5.8027e-96
-1.37308e-95
7.18802e-97
-1.55921e-95
7.49259e-96
-2.21712e-95
3.23539e-95
-3.00053e-95
1.64728e-95
-5.58297e-95
3.32448e-95
-4.92139e-95
1.36231e-95
-5.63382e-95
-1.75316e-95
-4.44873e-95
-1.00242e-95
-4.01071e-95
6.09505e-96
-1.4357e-94
-6.89864e-95
-1.01043e-94
-2.22735e-95
-1.42394e-94
1.97604e-94
-2.61275e-94
1.4482e-94
-3.01304e-94
1.43005e-96
-2.89649e-94
2.96021e-95
-2.95689e-94
2.0207e-94
-3.35263e-94
1.10903e-94
-3.69956e-94
2.951e-94
-3.85337e-94
6.66984e-95
-3.59336e-94
-5.50818e-95
-2.90132e-94
-1.63558e-95
-2.53129e-94
-4.95563e-95
-2.44647e-94
-5.26803e-95
-4.19868e-94
5.67027e-94
-8.34101e-94
-9.15714e-95
-8.29718e-94
4.25818e-94
-7.45044e-94
3.25907e-94
-1.77785e-93
6.6971e-94
-2.72433e-93
-1.14984e-93
-1.99441e-93
-5.56968e-94
-1.88693e-93
6.70514e-94
-2.23155e-93
3.88028e-95
-3.22828e-93
1.2872e-93
-5.82488e-93
2.77224e-93
-6.72535e-93
6.78593e-93
-6.20701e-93
4.25513e-93
-6.45083e-93
6.1485e-93
-6.13886e-93
4.60897e-93
-9.27095e-93
4.25563e-93
-8.06037e-93
2.03893e-93
-1.70404e-92
4.24916e-93
-2.54645e-92
-1.12639e-92
-1.84902e-92
-5.46273e-93
-1.76638e-92
7.48985e-93
-2.30288e-92
5.03227e-93
-2.36265e-92
-3.23468e-93
-2.07547e-92
1.02564e-93
-2.01702e-92
4.8706e-93
-3.12183e-92
-1.35546e-92
-2.34129e-92
-8.62864e-93
-2.07616e-92
-7.28508e-93
-2.79541e-92
-1.20244e-92
-2.08747e-92
-8.90857e-93
-1.64681e-92
-3.43225e-93
-2.70891e-92
-1.71059e-92
-1.86235e-92
-1.02819e-92
-1.53953e-92
-5.17221e-94
-1.5435e-92
-1.20299e-93
-1.40512e-92
-3.80566e-93
-1.10735e-92
-2.33e-93
-9.77114e-93
-4.23759e-94
-1.2981e-92
-8.35008e-93
-1.03174e-92
-2.05689e-93
-9.71053e-93
-2.50444e-93
-7.67056e-93
-2.09765e-93
-5.96625e-93
-1.58677e-93
-3.43326e-93
-9.56638e-94
-3.70045e-92
-3.63765e-92
-8.19556e-91
-7.48597e-91
2.5775e-89
-6.39755e-91
6.45398e-87
6.91961e-88
2.70598e-85
2.00355e-85
4.55909e-83
9.14166e-84
8.88966e-82
1.1321e-81
6.05712e-81
8.0383e-81
2.32046e-79
2.70963e-79
-1.33076e-78
5.3314e-78
-1.52962e-76
3.83537e-78
-7.10208e-75
-4.09735e-77
-1.89656e-73
-1.1651e-73
-2.12469e-72
-1.33765e-72
-2.39942e-71
6.69784e-73
-1.377e-70
-7.74188e-09
-3.12375e-09
-5.66599e-11
-7.91208e-13
7.09995e-14
4.51846e-16
-4.4705e-19
1.05217e-19
1.19918e-22
5.82692e-24
-1.02029e-25
1.78248e-27
-1.35362e-29
3.90518e-32
3.67885e-34
-1.99463e-36
-1.12211e-38
2.18215e-40
-1.70831e-42
7.03305e-45
-2.96279e-47
8.93494e-50
-4.49443e-52
7.43664e-54
-1.00006e-55
8.08528e-58
-3.66672e-60
6.99952e-63
-5.39613e-66
1.27166e-67
-8.70436e-09
-3.58844e-07
2.32145e-07
1.89431e-06
5.0923e-08
-1.62864e-05
-5.13113e-05
-5.99175e-05
0.000100494
0.000733813
0.00235626
0.00556605
0.0111953
0.0200022
0.0321425
0.0478201
0.0680959
0.0908323
0.115039
0.139791
0.162526
0.18364
0.197694
0.201789
0.201908
0.190857
0.172107
0.145323
0.11588
0.0827896
0.0498787
0.0194297
-0.00995425
-0.0351041
-0.0530043
-0.0656663
-0.0734768
-0.0790044
-0.07903
-0.0736286
-0.0687923
-0.0608993
-0.0531537
-0.045085
-0.0360219
-0.0301076
-0.0242718
-0.0189391
-0.014893
-0.0114352
-0.00849639
-0.00624554
-0.00461773
-0.00342341
-0.00245498
-0.00170359
-0.00120779
-0.000829908
-0.000563925
-0.000383578
-0.000248917
-0.000169602
-0.000112331
-7.28272e-05
-4.71673e-05
-3.06923e-05
-1.9995e-05
-1.27934e-05
-7.83181e-06
-4.99984e-06
-3.09218e-06
-1.88355e-06
-1.14783e-06
-7.08179e-07
-4.24615e-07
-2.54132e-07
-1.49032e-07
-9.03889e-08
-5.33901e-08
-3.23975e-08
-1.48365e-08
-9.56511e-09
1.0266e-09
-1.53942e-09
-7.68055e-10
-2.7131e-09
1.57144e-09
-5.70113e-09
-1.39681e-08
6.71849e-09
5.03041e-08
-1.4943e-07
-2.79191e-07
-3.12528e-07
3.65243e-10
-5.07439e-10
-8.27693e-10
-6.53082e-10
-6.75938e-10
-4.11965e-10
-1.2138e-09
-1.43823e-09
8.75234e-10
-8.42675e-10
-5.2284e-09
6.16053e-09
2.78447e-10
-2.15745e-09
3.75135e-09
-2.4784e-09
-4.72577e-09
4.83351e-09
2.16808e-09
4.00345e-09
4.90852e-09
6.60045e-10
3.90964e-09
-8.348e-09
-1.59287e-09
-7.35596e-09
-7.73235e-09
-5.93356e-09
-3.70113e-09
-5.28724e-09
-4.9535e-09
-4.37673e-09
-6.86625e-10
-1.33019e-08
-1.22702e-08
-1.30211e-08
-2.48652e-08
-7.19116e-09
-2.13844e-08
-7.32541e-09
1.73252e-08
6.21265e-08
2.89415e-08
7.74879e-08
7.382e-11
-7.25293e-08
-6.78653e-08
-1.5755e-07
-2.18531e-07
-4.36312e-07
-3.1394e-07
-5.29696e-07
-5.86886e-07
-3.94729e-07
-6.98721e-07
2.02265e-07
-5.13949e-07
1.23774e-06
-8.99893e-08
2.31498e-06
4.84708e-07
2.5586e-06
6.08499e-07
8.6718e-07
-7.96159e-07
-3.70375e-06
-5.25979e-06
-1.12577e-05
-1.42783e-05
-2.02877e-05
-2.88146e-05
-2.56699e-05
-4.89565e-05
-1.5427e-05
-7.08135e-05
2.63082e-05
-8.923e-05
0.000128633
-9.09477e-05
0.000324756
-5.32118e-05
0.00066307
3.94094e-05
0.00120866
0.000235333
0.00201496
0.000568506
0.00316948
0.00106056
0.00477846
0.00179975
0.00683632
0.00285443
0.00961815
0.00420069
0.0131291
0.0061015
0.0172848
0.00839353
0.0223484
0.0110835
0.0280163
0.0144339
0.0351239
0.0181179
0.0426747
0.0227053
0.0510091
0.0273011
0.060719
0.0327383
0.0703362
0.0383629
0.0805509
0.0439165
0.092299
0.0503429
0.103586
0.0571689
0.114444
0.0629181
0.126216
0.0693905
0.136714
0.0751707
0.147238
0.0797949
0.155507
0.0842764
0.164953
0.0873323
0.171436
0.0906401
0.176284
0.0909032
0.18169
0.0923164
0.18265
0.0904204
0.18201
0.086703
0.181741
0.083607
0.177984
0.0791428
0.171557
0.0711429
0.164926
0.0644745
0.154741
0.0542599
0.143928
0.0426082
0.132481
0.0319774
0.117786
0.0195545
0.105009
0.00711583
0.090203
-0.00386858
0.0745229
-0.0165362
0.0592843
-0.029661
0.0444698
-0.0421294
0.029384
-0.053911
0.0140739
-0.0646736
0.00111057
-0.0754935
-0.0132889
-0.0843393
-0.0241891
-0.0926909
-0.0343331
-0.099458
-0.0452123
-0.105138
-0.0515093
-0.109106
-0.0587291
-0.112945
-0.0660486
-0.115981
-0.0709371
-0.117247
-0.074396
-0.117428
-0.0760001
-0.116072
-0.0770325
-0.114838
-0.0776387
-0.112022
-0.0758529
-0.108264
-0.0768018
-0.104635
-0.0730794
-0.0996901
-0.0699026
-0.0942274
-0.0679381
-0.0896716
-0.0650637
-0.0846335
-0.0603269
-0.0786645
-0.0575841
-0.073429
-0.0537529
-0.067963
-0.0498121
-0.0625982
-0.0454544
-0.0571855
-0.0418805
-0.0523631
-0.0384171
-0.0476341
-0.0345904
-0.0428899
-0.0319872
-0.0388757
-0.0281892
-0.0345636
-0.0249888
-0.0306338
-0.0226014
-0.0274373
-0.0202077
-0.024423
-0.0175995
-0.02139
-0.0157765
-0.0189444
-0.0136177
-0.016448
-0.0117878
-0.0142477
-0.0104204
-0.0124394
-0.00880964
-0.0106294
-0.0076847
-0.00923793
-0.00672747
-0.00806131
-0.0057933
-0.00693388
-0.00497692
-0.0059392
-0.00421025
-0.00504464
-0.00360778
-0.00431933
-0.00308982
-0.00367987
-0.00257
-0.00308745
-0.00221579
-0.00262471
-0.00183233
-0.0021886
-0.00152578
-0.0018248
-0.00129848
-0.00154536
-0.00108342
-0.00129052
-0.000889062
-0.00106384
-0.000748222
-0.000890126
-0.000620406
-0.000738124
-0.00051437
-0.000610716
-0.000421366
-0.000502294
-0.000348042
-0.000414861
-0.000287261
-0.0003415
-0.000233217
-0.000278103
-0.000193881
-0.000229524
-0.000155758
-0.000185422
-0.000125846
-0.000149986
-0.000103406
-0.00012279
-8.43979e-05
-0.000100109
-6.73103e-05
-8.02945e-05
-5.49787e-05
-6.52966e-05
-4.42414e-05
-5.2576e-05
-3.55974e-05
-4.22625e-05
-2.84083e-05
-3.37907e-05
-2.27776e-05
-2.71551e-05
-1.82741e-05
-2.17319e-05
-1.43944e-05
-1.71393e-05
-1.1322e-05
-1.34844e-05
-9.08215e-06
-1.08125e-05
-7.24331e-06
-8.62398e-06
-5.80036e-06
-6.90174e-06
-4.62146e-06
-5.49222e-06
-3.59639e-06
-4.29648e-06
-2.87826e-06
-3.41583e-06
-2.23471e-06
-2.65943e-06
-1.73489e-06
-2.07251e-06
-1.37323e-06
-1.63287e-06
-1.05117e-06
-1.25559e-06
-8.26822e-07
-9.87327e-07
-6.53667e-07
-7.79886e-07
-5.09842e-07
-6.09028e-07
-3.97706e-07
-4.74655e-07
-3.07761e-07
-3.68294e-07
-2.39766e-07
-2.87062e-07
-1.86898e-07
-2.23004e-07
-1.42637e-07
-1.70963e-07
-1.11849e-07
-1.33486e-07
-8.58636e-08
-1.02755e-07
-6.64669e-08
-7.93486e-08
-5.19533e-08
-6.15727e-08
-3.95676e-08
-4.67227e-08
-2.91471e-08
-3.48343e-08
-2.24197e-08
-2.73158e-08
-1.95961e-08
-1.33081e-08
-2.2213e-08
3.10547e-27
3.87725e-26
9.03391e-23
5.29865e-20
1.35647e-17
1.28531e-16
-1.77955e-16
5.21854e-13
5.40985e-11
1.15504e-10
7.25061e-10
9.09424e-10
-2.15327e-10
0
0
0
0
-5.00466e-37
3.91501e-33
-8.7424e-30
-9.76806e-29
-6.26819e-27
-8.1627e-27
-1.91892e-26
5.56186e-25
1.19746e-25
1.81159e-24
-5.3273e-24
4.99734e-24
-1.22499e-23
-2.14924e-23
-1.62898e-23
-2.36636e-23
-1.70852e-23
-1.40355e-23
-6.4916e-24
-2.93578e-24
-2.93181e-24
-9.55759e-24
1.50809e-23
2.99486e-23
2.18906e-23
3.41287e-23
3.45694e-23
2.44282e-23
1.29331e-23
-7.40919e-24
-1.92683e-23
-2.28764e-23
-1.11299e-23
-1.45349e-23
-9.03458e-24
-7.20227e-24
-5.43147e-24
-2.71348e-24
-1.31989e-24
-4.08392e-25
2.34046e-25
6.77237e-25
5.1973e-25
6.85035e-25
6.08818e-25
5.60713e-25
4.33966e-25
3.12968e-25
1.74593e-25
1.30018e-25
7.72286e-26
5.03877e-26
4.06195e-26
2.35529e-26
1.79325e-26
1.29426e-26
4.4227e-27
2.56543e-27
9.53972e-28
-3.77787e-28
-1.16522e-27
-1.34181e-27
-7.23403e-28
-3.07312e-28
-3.85749e-28
-6.23131e-29
7.06077e-29
1.22585e-28
1.3741e-28
7.73055e-29
9.13934e-29
6.83428e-29
-2.22274e-29
-3.07626e-29
-4.67785e-29
-5.16782e-29
-4.88055e-29
-3.75305e-29
-3.07536e-29
-2.17974e-29
-1.41826e-29
-1.02812e-29
-5.27512e-30
-4.17346e-30
-3.07365e-30
-1.27832e-30
-7.72351e-31
-1.20664e-31
-1.05676e-31
-5.15955e-32
-2.92971e-32
-7.18296e-33
2.18028e-32
2.51231e-32
-4.10802e-30
2.78139e-29
-1.53842e-70
5.82614e-12
3.88876e-12
7.18203e-10
4.11016e-10
-9.5495e-11
-9.98689e-13
-1.93101e-13
-8.27392e-15
1.24067e-17
-7.02916e-19
-6.04853e-21
-3.5545e-23
1.54103e-25
-1.04298e-27
-8.6115e-29
1.22299e-30
-9.47453e-33
7.1328e-36
2.79145e-37
-2.10386e-39
5.57438e-42
1.76166e-44
-1.12191e-46
7.18147e-49
-7.53578e-51
8.04732e-53
-5.87615e-55
1.60827e-57
1.57658e-59
-1.94908e-61
5.08689e-64
-2.42163e-67
2.40444e-10
7.83119e-69
-2.34554e-07
1.03649e-06
1.98585e-06
-5.61006e-06
-3.22912e-05
-6.46367e-05
-1.65755e-05
0.000331014
0.00136694
0.00372322
0.00797699
0.0150086
0.0256538
0.0396333
0.0578754
0.0788277
0.102392
0.12895
0.15147
0.17385
0.189725
0.198953
0.202544
0.195566
0.180112
0.16046
0.130778
0.0992402
0.0667934
0.0351122
0.00432832
-0.0215752
-0.0425126
-0.0617711
-0.0703234
-0.0767781
-0.077467
-0.0743492
-0.0720198
-0.0630426
-0.0549555
-0.0483224
-0.04003
-0.0332011
-0.0272512
-0.0210877
-0.0170995
-0.0128469
-0.00961443
-0.00743356
-0.00538716
-0.00398502
-0.00284785
-0.00199559
-0.0014449
-0.000975816
-0.00066799
-0.000459268
-0.000307076
-0.000205706
-0.000139137
-8.88346e-05
-5.9841e-05
-3.80955e-05
-2.47918e-05
-1.57441e-05
-9.8041e-06
-6.24659e-06
-3.86202e-06
-2.36841e-06
-1.49585e-06
-8.95052e-07
-5.37079e-07
-3.24576e-07
-1.91044e-07
-1.16043e-07
-6.80956e-08
-4.11373e-08
-2.70486e-08
1.08769e-09
6.5857e-11
9.57586e-10
7.28251e-10
3.50399e-09
8.86432e-09
-5.86382e-09
-6.60957e-09
4.17344e-08
1.48167e-08
-1.71652e-07
1.80935e-09
-1.89208e-09
-4.13376e-10
-7.75217e-10
-7.92114e-10
-1.01596e-09
8.97182e-10
-3.16389e-09
1.56067e-09
2.02762e-19
-9.89425e-10
-2.69317e-24
-2.21603e-21
-1.10584e-18
-9.06574e-17
1.13754e-15
-3.80008e-14
-7.37043e-12
-2.52295e-10
1.59809e-22
0
0
0
5.53195e-44
7.87717e-35
2.14435e-31
-1.51564e-28
-1.08209e-27
1.34305e-26
-9.40424e-27
1.4506e-25
7.34106e-25
-1.76987e-24
-2.59344e-24
-1.38908e-23
-6.06378e-24
-1.36116e-23
-1.57358e-23
-2.64857e-23
-1.64202e-23
-1.32115e-23
-3.32131e-24
6.39571e-24
4.44576e-24
1.37881e-23
5.285e-24
2.33505e-23
4.17258e-23
4.44086e-23
5.48598e-23
3.21477e-23
2.62768e-23
7.29299e-24
-9.10412e-24
-1.56989e-23
-2.93795e-23
-1.51649e-23
-1.65217e-23
-7.00769e-24
-7.33253e-24
-4.66404e-24
-2.40897e-24
-9.73232e-25
2.22909e-25
5.77665e-25
6.72194e-25
6.38042e-25
5.90372e-25
5.77913e-25
4.72106e-25
3.36755e-25
2.91822e-25
1.41614e-25
1.20014e-25
5.94164e-26
4.78807e-26
3.70992e-26
2.35216e-26
1.47838e-26
1.06769e-26
3.36937e-27
1.90196e-27
1.53145e-28
-8.67325e-28
-1.23877e-27
-9.92523e-28
-5.01958e-28
-3.84814e-29
-2.32413e-28
1.33086e-28
6.24878e-29
1.88645e-28
1.84526e-28
1.46074e-28
9.43639e-29
4.81568e-29
-1.49407e-29
-3.39979e-29
-4.83773e-29
-4.62928e-29
-5.10424e-29
-3.32932e-29
-2.29893e-29
-2.06518e-29
-1.26711e-29
-8.71111e-30
-5.29719e-30
-3.52134e-30
-2.69138e-30
-1.22611e-30
-6.0749e-31
-1.29499e-31
-6.01181e-32
-3.97495e-32
-8.96219e-33
2.43448e-32
2.9009e-32
1.95963e-31
-1.61764e-28
-7.24082e-70
0
3.28288e-17
-1.56609e-18
-1.01568e-20
-8.44585e-23
5.98131e-25
-6.50458e-27
-1.18801e-28
2.1724e-30
-1.80072e-32
8.71827e-36
5.59967e-37
-4.20844e-39
1.24557e-41
2.07012e-44
-1.52029e-46
1.2118e-48
-1.42946e-50
1.51208e-52
-1.01443e-54
2.34974e-57
3.41618e-59
-3.61025e-61
9.02443e-64
-5.08382e-67
2.21096e-68
3.49193e-07
2.11328e-06
-1.11784e-06
-2.2972e-05
-7.2496e-05
-0.000125746
-7.72327e-05
0.000293404
0.00134464
0.00345301
0.00724338
0.0131246
0.0208117
0.0311002
0.0436166
0.056797
0.0719044
0.0835199
0.0954298
0.102268
0.10253
0.0990491
0.0879013
0.070482
0.0513161
0.0225562
-0.00484354
-0.0321514
-0.0588385
-0.0808314
-0.0992785
-0.112226
-0.121088
-0.122897
-0.122621
-0.117306
-0.108178
-0.0993765
-0.0865331
-0.0742564
-0.0631625
-0.0521151
-0.0422442
-0.0343164
-0.0266767
-0.0211439
-0.0159967
-0.0119505
-0.00908837
-0.00658508
-0.0048724
-0.00349563
-0.00245364
-0.00175991
-0.0011983
-0.000816682
-0.000560513
-0.000375772
-0.000250307
-0.00016889
-0.000108712
-7.23833e-05
-4.60926e-05
-3.00923e-05
-1.91647e-05
-1.19829e-05
-7.59074e-06
-4.70714e-06
-2.89092e-06
-1.81375e-06
-1.08646e-06
-6.55934e-07
-3.96765e-07
-2.34282e-07
-1.41558e-07
-8.35713e-08
-5.0284e-08
-3.19473e-08
-2.45593e-10
-4.97671e-10
-7.82728e-10
4.39619e-09
1.87662e-10
-1.40903e-08
3.72665e-08
2.77965e-08
9.35485e-10
-8.52316e-10
1.73619e-10
-9.2188e-11
-1.78471e-12
9.52518e-11
-7.42614e-10
-1.44886e-10
2.35023e-10
-1.82935e-10
-2.80325e-09
2.82187e-17
5.58903e-16
-4.02519e-15
7.19817e-13
1.00685e-10
0
0
0
8.68548e-35
-3.22733e-31
1.30805e-28
1.5194e-27
-6.64726e-26
3.41919e-26
8.02407e-25
-3.48221e-24
-4.86741e-24
4.80138e-24
1.81276e-23
-3.04129e-23
3.19908e-23
3.86121e-23
1.38362e-24
-1.13925e-23
-4.76391e-23
-3.86121e-23
-2.19554e-23
-3.02567e-23
-1.67421e-23
-7.57536e-23
-1.23582e-22
-6.36134e-23
-8.13059e-23
-3.64221e-23
-9.57811e-24
4.25792e-23
6.98791e-23
7.38278e-23
5.68444e-23
2.17392e-23
2.77237e-23
9.48693e-24
8.37831e-24
1.26865e-24
-1.56263e-24
-2.46503e-24
-2.80227e-24
-2.00327e-24
-2.24679e-24
-1.45339e-24
-7.56278e-25
-7.32125e-25
-2.57994e-25
-1.40743e-25
-7.71835e-26
3.06767e-26
-6.16241e-26
1.34445e-26
-2.16153e-26
-9.66574e-27
-1.73324e-28
-6.94573e-27
-8.33905e-27
2.86803e-27
-1.53823e-27
3.71639e-28
7.99245e-28
-6.63831e-28
-9.94539e-29
-1.1616e-27
-9.76867e-28
-3.94333e-28
-9.98407e-28
-9.66832e-28
-4.24946e-28
-9.84755e-29
-2.18984e-28
-2.06182e-28
-4.43555e-29
4.00714e-29
-1.46932e-29
4.75982e-29
3.00202e-29
2.22081e-29
1.10296e-29
1.62028e-29
1.48928e-29
5.15499e-30
5.65769e-30
3.72356e-30
3.18543e-30
2.42677e-30
4.20311e-31
9.29341e-31
6.37875e-31
3.06271e-31
2.89486e-31
7.08448e-32
8.63454e-32
8.99454e-32
-2.63348e-32
8.91865e-33
4.23146e-29
2.54019e-22
1.08406e-23
-2.00178e-25
3.57954e-27
-2.84481e-29
9.19972e-32
6.54054e-34
-3.71108e-36
-1.96475e-38
4.03356e-40
-2.96437e-42
1.27262e-44
-5.2579e-47
1.65123e-49
-9.91505e-52
1.50936e-53
-1.95712e-55
1.49717e-57
-6.47904e-60
1.25914e-62
-1.37686e-65
2.87365e-67
-1.55187e-07
1.33298e-06
1.8687e-06
-8.72075e-06
-4.4303e-05
-0.000102553
-0.000124503
4.60773e-05
0.000693128
0.00224683
0.00511065
0.00986542
0.0168381
0.0257096
0.0375393
0.0504382
0.0643254
0.0783004
0.089502
0.100441
0.104346
0.101083
0.095658
0.0813036
0.061249
0.0369564
0.0105578
-0.0176668
-0.0449296
-0.0697514
-0.0902811
-0.106137
-0.116885
-0.12228
-0.123247
-0.121088
-0.11375
-0.103867
-0.0935198
-0.0809829
-0.0687296
-0.0579676
-0.0464873
-0.0381781
-0.0304074
-0.0237361
-0.0184554
-0.0140126
-0.010427
-0.0076934
-0.00566704
-0.00417348
-0.00297173
-0.00207959
-0.00146662
-0.00100255
-0.000681303
-0.000464879
-0.000304078
-0.000206087
-0.000136258
-8.86598e-05
-5.74307e-05
-3.72219e-05
-2.42666e-05
-1.54282e-05
-9.52022e-06
-6.05251e-06
-3.74334e-06
-2.29413e-06
-1.39405e-06
-8.579e-07
-5.14781e-07
-3.08751e-07
-1.81792e-07
-1.09983e-07
-6.51714e-08
-3.9402e-08
-1.56486e-09
3.86926e-10
-9.70672e-10
2.08844e-09
2.20162e-09
-5.69679e-09
1.99243e-08
5.79627e-08
-1.10317e-08
2.26035e-10
-4.66758e-11
-7.31223e-11
-1.91302e-10
-1.56854e-10
1.20429e-09
-1.75776e-09
9.43976e-10
-4.23026e-24
-4.22155e-21
-2.08739e-18
-2.33781e-16
1.97509e-15
-5.40853e-14
-1.25321e-11
-6.35681e-10
0
0
1.46637e-39
-1.76446e-33
-1.32988e-29
3.13587e-29
1.9398e-26
-8.52401e-26
-2.93567e-25
-2.93093e-24
-2.08278e-24
1.25781e-23
2.58437e-23
5.33385e-23
9.1669e-23
4.88889e-23
1.00501e-23
2.46817e-23
-2.02086e-23
-5.38041e-23
-2.64047e-23
-3.98981e-23
-1.48673e-23
-6.39522e-23
-6.91778e-23
-8.48141e-23
-1.06035e-22
-5.81763e-23
-3.45985e-23
1.47132e-23
4.45487e-23
4.83405e-23
5.08724e-23
3.74331e-23
4.04655e-23
1.33394e-23
7.46052e-24
4.92908e-24
-3.85214e-25
-5.95593e-25
-1.98972e-24
-2.40296e-24
-2.06865e-24
-1.33092e-24
-7.62916e-25
-7.13005e-25
-2.88759e-25
-8.76854e-26
-4.48172e-26
-1.05736e-26
-2.74124e-26
1.73599e-26
-5.86365e-27
-3.07457e-26
4.77835e-27
-1.29951e-26
-6.59991e-27
8.1104e-28
-6.77709e-28
6.8068e-28
1.58962e-27
1.24152e-28
6.15254e-28
-7.62452e-28
-8.40069e-28
-4.16205e-28
-9.73925e-28
-9.05069e-28
-2.16922e-28
-4.18443e-28
-1.97768e-28
-3.14477e-28
-3.01868e-29
9.13181e-29
-4.50889e-29
4.7431e-29
5.08975e-29
3.06083e-29
1.90132e-29
8.91766e-30
1.18216e-29
8.42823e-30
6.73455e-30
3.18097e-30
4.04666e-30
2.35711e-30
1.10135e-30
1.09548e-30
5.50535e-31
3.69111e-31
2.7668e-31
6.27721e-32
7.07761e-32
6.11892e-32
1.19173e-32
2.01306e-32
-3.30209e-30
-6.07242e-13
1.17698e-18
6.85834e-16
1.57894e-13
-1.57405e-14
-5.14e-10
-3.66026e-07
7.45007e-10
-7.33139e-10
6.10963e-26
1.01119e-19
0
0
0
0
0
0
0
0
0
0
0
0
0
0
0
0
0
0
0
0
0
0
0
0
0
0
0
0
0
0
0
0
0
0
0
0
0
0
0
0
0
0
0
0
0
0
0
0
0
0
0
0
0
0
0
0
0
0
0
0
0
0
0
0
0
0
0
0
0
0
0
0
0
0
0
0
0
0
0
0
0
0
0
0
0
0
0
0
0
0
0
0
0
0
0
0
0
0
0
0
0
0
0
0
0
0
0
0
0
0
0
0
0
0
0
0
0
0
0
0
0
0
0
0
0
0
0
0
0
0
0
0
0
0
0
0
0
0
0
0
0
0
0
0
0
0
0
0
0
0
0
0
0
0
0
0
0
0
0
0
0
0
0
0
0
0
0
0
0
0
0
0
0
0
0
0
0
0
0
0
0
0
0
0
0
0
0
0
0
0
0
0
0
0
0
0
0
-4.81351e-10
0
0
0
0
0
0
0
0
0
0
0
0
0
0
0
0
0
0
0
0
0
0
0
0
0
0
0
0
0
0
0
0
0
0
0
0
0
0
0
0
0
0
0
0
0
0
0
0
0
0
0
0
0
0
0
0
0
0
0
0
0
0
0
0
-4.01322e-147
0
8.70133e-136
1.08542e-135
1.18147e-135
1.47158e-135
-5.29844e-135
1.05655e-135
-1.58026e-132
-1.65226e-132
-1.20208e-131
-1.29086e-131
2.01137e-130
1.63746e-130
-2.85459e-126
4.53357e-127
8.19682e-124
1.06653e-123
4.34219e-123
-1.12269e-122
2.83751e-121
3.5629e-121
4.77248e-120
5.80931e-120
3.04762e-120
3.74871e-120
2.82826e-120
-1.51365e-120
2.21503e-119
2.24437e-119
3.95998e-118
4.40891e-118
2.21591e-118
3.73946e-118
2.15396e-116
3.51972e-116
6.86056e-117
8.59033e-116
-6.71803e-116
1.93047e-115
-6.11031e-114
8.27909e-114
-1.96554e-113
-1.13604e-113
-1.19667e-112
-8.73871e-113
-1.2023e-111
-2.08891e-111
-6.28153e-112
-2.01955e-111
2.7269e-111
2.28242e-111
3.51018e-109
3.98886e-109
6.61783e-109
-1.77903e-108
9.14953e-109
-1.52583e-108
1.24908e-108
-1.12932e-108
1.0489e-107
-1.17337e-107
-2.60038e-107
2.0766e-106
-3.12304e-106
6.77071e-106
-1.04871e-104
-2.83132e-105
-1.31833e-104
6.74154e-105
-1.72321e-104
1.68961e-104
-1.32406e-103
1.06138e-104
-1.91335e-103
-8.02926e-105
-5.74846e-103
1.17644e-102
-1.19701e-102
1.44903e-103
-1.83743e-102
-9.14412e-103
-2.37462e-102
-1.20845e-102
-1.77831e-102
-5.66636e-103
-2.87595e-102
1.19785e-103
-2.41726e-102
5.60871e-103
-2.24864e-102
1.10523e-102
-4.23251e-102
-1.52738e-102
-6.86e-102
-4.15258e-102
-5.42297e-102
-2.14689e-102
-1.99047e-101
-1.00571e-101
-2.91287e-101
-2.06255e-101
-2.07735e-101
-1.41863e-101
-2.30186e-101
-6.54199e-103
-5.93937e-101
-2.71618e-101
-2.19467e-101
-9.01243e-101
3.07834e-100
-1.218e-100
2.4903e-100
-6.42946e-101
6.00505e-100
-5.81553e-100
-4.53737e-100
3.70812e-99
-2.55143e-99
4.87497e-99
-5.05384e-99
8.62537e-99
-1.40331e-98
1.48148e-98
-6.34417e-98
7.80396e-98
-7.45492e-98
1.14355e-97
-9.02682e-98
9.70322e-98
-3.45323e-97
1.30187e-98
-3.22824e-97
1.64975e-97
-3.55304e-97
2.82077e-97
-1.70521e-96
7.4803e-97
-2.43516e-96
8.7093e-97
-3.59869e-96
4.47503e-96
-4.38779e-96
6.13201e-96
-8.02793e-96
1.33078e-96
-1.9747e-95
4.30895e-95
-1.29107e-94
-1.41051e-95
-1.11596e-94
4.79201e-95
-1.02115e-94
5.59741e-95
-9.68972e-95
5.35706e-95
-2.8672e-94
-6.76577e-95
-2.62761e-94
-1.48011e-96
-2.33159e-94
3.17082e-95
-5.63268e-94
9.69497e-95
-8.35128e-94
-4.36762e-95
-7.84098e-94
3.17795e-94
-1.18442e-93
1.07097e-93
-2.42855e-93
-3.225e-94
-2.26051e-93
5.01766e-95
-4.20228e-93
-2.94308e-93
-3.05228e-93
-9.99174e-94
-2.27107e-93
-4.61898e-94
-1.98434e-93
6.56922e-94
-2.28773e-93
1.54162e-94
-5.12923e-93
-3.4253e-94
-4.92273e-93
1.60481e-93
-1.5571e-92
-4.6229e-94
-1.9938e-92
-3.50114e-93
-1.62698e-92
-1.41879e-93
-1.702e-92
6.33354e-93
-2.38907e-92
-7.21937e-93
-2.28743e-92
5.09349e-93
-3.13942e-92
-1.63761e-92
-2.32064e-92
-9.09e-93
-1.70471e-92
-5.08779e-93
-1.48684e-92
-1.42409e-93
-1.16891e-92
1.31478e-93
-1.22174e-92
9.87775e-93
-4.18092e-92
-6.20725e-93
-3.96072e-92
2.14879e-92
-5.72636e-92
7.72939e-93
-5.10621e-92
1.62025e-92
-1.11204e-91
-2.40146e-92
-9.30975e-92
-7.09317e-93
-7.83858e-92
-3.05841e-93
-1.17674e-91
-4.6151e-93
-1.14938e-91
-1.49505e-92
-2.0767e-91
2.97116e-91
-3.85761e-91
5.80572e-92
-5.63719e-91
-1.99698e-91
-4.57199e-91
-9.18443e-92
-5.4084e-91
-1.72586e-91
-4.71649e-91
1.19612e-92
-6.13941e-91
-1.93196e-91
-4.80058e-91
-3.5469e-92
-9.76068e-91
-2.99519e-91
-8.4371e-91
-7.12342e-92
-7.11533e-91
-3.05161e-92
-1.12909e-90
-8.87199e-92
-1.30605e-90
-3.22841e-91
-1.03482e-90
-1.56274e-91
-1.04723e-90
3.48297e-91
-1.12703e-90
-2.2634e-91
-1.04256e-90
1.46735e-91
-8.21365e-91
7.72238e-92
-7.37161e-91
1.55387e-91
-9.18849e-91
-3.04494e-91
-6.86221e-91
-1.51917e-91
-6.52495e-91
-2.13905e-91
-7.10953e-91
-3.79052e-91
-5.29028e-91
-2.21143e-91
-7.18979e-91
-2.46027e-91
-7.02205e-91
-2.4967e-91
-5.3777e-91
-1.70361e-91
-4.48383e-91
1.22714e-92
-4.42635e-91
-1.35793e-91
-3.37778e-91
-4.81297e-92
-4.15884e-91
-3.10686e-92
-3.77038e-91
-7.99896e-92
-2.88443e-91
-9.2304e-92
-2.29312e-91
-7.22184e-92
-1.79147e-91
-2.8421e-92
-8.09781e-91
8.4934e-91
-6.83371e-89
-5.80153e-89
-5.33806e-88
1.12281e-89
1.93012e-86
-1.77932e-86
-7.80849e-84
1.16547e-85
1.14584e-81
6.78129e-83
1.19486e-80
2.49699e-80
2.50048e-79
1.00638e-78
-7.79243e-78
1.75993e-77
8.2296e-77
8.68353e-77
-6.53712e-76
7.02327e-75
-7.32175e-74
2.16054e-74
-4.09618e-72
-1.6512e-72
-5.14109e-71
-6.08944e-71
-2.20541e-70
-6.67462e-70
-1.2202e-71
1.30981e-18
-1.06419e-12
-9.35917e-11
6.38318e-10
8.41554e-10
-1.57907e-10
-1.62497e-14
1.72275e-13
-3.0484e-14
-9.32448e-21
-2.87096e-09
-9.32746e-23
6.88428e-25
-6.76851e-27
-1.19488e-28
2.28287e-30
-1.83584e-32
2.9121e-36
5.94206e-37
-4.2001e-39
1.11775e-41
2.85348e-44
-1.77618e-46
1.3797e-48
-1.63359e-50
1.72694e-52
-1.20007e-54
3.54924e-57
3.22381e-59
-3.71692e-61
8.74592e-64
-2.20974e-67
2.15953e-68
-1.82509e-69
1.04307e-08
9.93754e-10
1.23149e-06
5.63348e-07
-9.09797e-06
-3.28642e-05
-5.88329e-05
-3.51113e-05
0.000140521
0.000639851
0.00166098
0.00329177
0.00567785
0.0086149
0.0116172
0.0151908
0.0173919
0.0186007
0.018281
0.015553
0.0124283
0.0053176
-0.00475935
-0.0132531
-0.023346
-0.0339427
-0.042883
-0.0483542
-0.0534926
-0.0548826
-0.0526794
-0.0505874
-0.0446971
-0.0392557
-0.0328499
-0.0255857
-0.0213033
-0.015767
-0.0112142
-0.00784779
-0.00439551
-0.00221715
-0.000995806
0.00108833
0.00100655
0.00139539
0.00143051
0.00119872
0.00105872
0.000875954
0.000744771
0.000592672
0.000391291
0.000301931
0.000219387
0.000158254
0.00011363
7.97257e-05
5.32294e-05
4.31469e-05
2.68025e-05
1.90299e-05
1.27542e-05
8.48567e-06
5.61138e-06
3.30125e-06
2.00954e-06
1.41371e-06
8.47475e-07
5.07312e-07
3.03825e-07
1.98658e-07
1.13187e-07
6.70734e-08
4.36785e-08
2.92553e-08
1.67156e-08
8.42195e-09
3.20619e-09
-1.91685e-09
-1.85905e-08
2.9805e-17
-6.63589e-10
2.78296e-09
-3.81679e-09
1.97897e-09
4.0116e-09
-2.26608e-08
2.3372e-08
2.81986e-08
-2.90888e-10
-6.38342e-11
8.13663e-10
-1.87378e-07
5.50019e-10
4.40651e-10
2.31481e-10
7.19829e-26
3.24385e-10
4.04338e-10
2.96917e-10
7.48686e-10
6.14429e-10
-3.23682e-10
5.36651e-10
3.31769e-10
1.67701e-10
1.24235e-10
2.03763e-19
-1.34921e-20
-2.77503e-07
-8.59531e-08
4.09206e-17
6.31717e-18
1.04235e-09
-7.51551e-09
-5.01162e-09
-5.78457e-10
-3.37425e-09
4.43888e-10
1.23286e-09
-1.22668e-09
9.09118e-10
-5.78638e-09
-1.62655e-09
-3.8829e-09
-4.51208e-09
8.96625e-09
4.10066e-09
1.50069e-08
1.4367e-08
1.56482e-08
2.13626e-08
-7.03325e-09
1.71877e-08
-3.37727e-08
1.02975e-09
-3.6007e-08
-7.96505e-09
-2.62566e-09
3.89872e-09
3.90159e-08
3.8044e-08
5.27011e-08
1.10495e-07
-1.3671e-08
1.43672e-07
-1.12498e-07
9.80137e-08
-2.7077e-07
-1.3317e-09
-3.79784e-07
-7.30003e-08
-2.91974e-07
-3.71426e-09
1.03668e-07
2.48377e-07
6.49175e-07
8.31805e-07
1.09661e-06
1.50996e-06
9.02252e-07
2.11895e-06
-8.18708e-07
1.8712e-06
-5.04726e-06
1.88157e-08
-1.23792e-05
-4.43518e-06
-2.25821e-05
-1.2486e-05
-3.45509e-05
-2.4177e-05
-4.41341e-05
-3.91517e-05
-4.60802e-05
-5.67548e-05
-2.97785e-05
-7.24818e-05
1.68097e-05
-8.61777e-05
0.000112286
-7.78251e-05
0.000271822
-4.96976e-05
0.000527611
9.18288e-06
0.000888038
0.000113768
0.00137908
0.000267336
0.00199057
0.000488577
0.00279182
0.000729479
0.00378858
0.00102721
0.00491693
0.00143307
0.00629331
0.00184396
0.00762225
0.00238681
0.00916622
0.00282173
0.010901
0.00326831
0.0123006
0.00389232
0.0136752
0.00380275
0.0149463
0.00427664
0.015766
0.00393427
0.0166695
0.00328785
0.0175741
0.00290737
0.017429
0.00257623
0.0172381
0.000703269
0.016482
-0.000152754
0.0153381
-0.00195264
0.0131715
-0.00374491
0.0110868
-0.00626905
0.00853685
-0.00866691
0.00483661
-0.0108408
0.0019421
-0.0145586
-0.00266907
-0.0160401
-0.00743409
-0.0196487
-0.0111521
-0.0231724
-0.0153755
-0.0251372
-0.0204483
-0.0272481
-0.0239526
-0.0303697
-0.0291352
-0.0314683
-0.0333839
-0.0335479
-0.0365872
-0.0348759
-0.0394288
-0.034803
-0.0420141
-0.035458
-0.0436234
-0.0349835
-0.0450947
-0.0342366
-0.0465059
-0.0332082
-0.0463149
-0.031734
-0.0463507
-0.0296819
-0.045982
-0.0278972
-0.0444234
-0.0257538
-0.0426071
-0.0217655
-0.0404999
-0.0204865
-0.03708
-0.0166159
-0.034291
-0.0124206
-0.0301735
-0.00996062
-0.0279412
-0.00513551
-0.0265985
-0.00338925
-0.0237102
-0.00281897
-0.0207301
-2.57492e-05
-0.0171317
0.00224549
-0.0148452
0.00499133
-0.0122404
0.00627181
-0.00922334
0.00763484
-0.00807832
0.0100465
-0.00548062
0.00902682
-0.00322556
0.0106441
-0.00264273
0.0120358
-0.00169004
0.0110588
-3.1182e-05
0.010823
0.000322987
0.0117093
0.00116526
0.0105462
0.0019343
0.0106119
0.00267265
0.0103021
0.0027012
0.0102046
0.00289441
0.00937437
0.00334457
0.00890389
0.00288858
0.00873731
0.00318693