/*--------------------------------*- C++ -*----------------------------------*\
  =========                 |
  \\      /  F ield         | OpenFOAM: The Open Source CFD Toolbox
   \\    /   O peration     | Website:  https://openfoam.org
    \\  /    A nd           | Version:  7
     \\/     M anipulation  |
\*---------------------------------------------------------------------------*/
FoamFile
{
    version     2.0;
    format      ascii;
    class       volScalarField;
    location    "0.95";
    object      T;
}
// * * * * * * * * * * * * * * * * * * * * * * * * * * * * * * * * * * * * * //

dimensions      [0 0 0 1 0 0 0];

internalField   nonuniform List<scalar> 
2500
(
0.5
0.0669146
-0.0353169
-0.0277115
-0.00789976
0.00112931
0.00220711
0.000963794
3.88563e-05
-0.000206219
-0.000130475
-2.60559e-05
1.76156e-05
1.74837e-05
6.08561e-06
-9.06071e-07
-2.20759e-06
-1.13469e-06
-1.06163e-07
2.47859e-07
1.87024e-07
4.9395e-08
-2.13888e-08
-2.77866e-08
-1.17496e-08
4.15041e-10
3.66279e-09
2.25287e-09
3.9626e-10
-4.00484e-10
-3.77113e-10
-1.2831e-10
2.74554e-11
5.60371e-11
2.86545e-11
2.11705e-12
-7.27347e-12
-5.5986e-12
-1.69069e-12
4.32235e-13
7.3178e-13
3.57583e-13
6.24291e-14
-6.2251e-15
2.88543e-14
5.33395e-14
3.91158e-14
8.57712e-15
-1.43714e-14
-1.85744e-14
0.933085
0.5
0.14482
-0.0139075
-0.0411718
-0.0230289
-0.00507433
0.00215701
0.00250723
0.00101071
-9.38734e-08
-0.000255324
-0.000158213
-3.18213e-05
2.20241e-05
2.24005e-05
8.17946e-06
-9.48178e-07
-2.86443e-06
-1.56602e-06
-2.00131e-07
3.13491e-07
2.58847e-07
7.77035e-08
-2.39625e-08
-3.79444e-08
-1.77303e-08
-5.20279e-10
4.83201e-09
3.30955e-09
7.46907e-10
-4.85336e-10
-5.39069e-10
-2.10167e-10
2.24218e-11
7.81678e-11
4.56994e-11
7.40898e-12
-8.55523e-12
-8.01459e-12
-3.11598e-12
-1.10811e-13
4.78314e-13
1.14602e-13
-1.48092e-13
-1.01149e-13
6.04515e-14
1.54314e-13
1.48435e-13
5.2217e-14
1.03532
0.85518
0.5
0.182448
0.00830364
-0.0419281
-0.032441
-0.0120093
3.84408e-05
0.00307766
0.00201936
0.000522644
-0.000189734
-0.000261936
-0.000118925
-6.07707e-06
2.86043e-05
2.02421e-05
5.19525e-06
-2.29056e-06
-2.95623e-06
-1.27806e-06
8.46557e-09
3.71768e-07
2.40892e-07
5.03708e-08
-3.68803e-08
-3.89007e-08
-1.47958e-08
1.67168e-09
5.45445e-09
3.10309e-09
4.3296e-10
-6.36431e-10
-5.51345e-10
-1.76033e-10
4.85331e-11
8.64415e-11
4.49725e-11
5.99519e-12
-8.05309e-12
-6.50017e-12
-1.97764e-12
1.1164e-13
1.34649e-14
-5.66005e-13
-7.00182e-13
-4.04805e-13
-2.86801e-14
2.07726e-13
1.02771
1.01391
0.817552
0.5
0.206389
0.0268058
-0.0388677
-0.0384381
-0.0184166
-0.00302402
0.00284105
0.00282245
0.00118552
4.2633e-05
-0.000296282
-0.000211922
-6.02234e-05
1.88442e-05
2.95095e-05
1.43558e-05
1.17969e-06
-3.31264e-06
-2.541e-06
-7.3481e-07
2.46588e-07
3.7721e-07
1.78829e-07
8.57283e-09
-4.6755e-08
-3.36137e-08
-8.56406e-09
4.24681e-09
5.36757e-09
2.31022e-09
-6.47643e-11
-7.39545e-10
-4.80632e-10
-1.04298e-10
7.21551e-11
8.0006e-11
3.44191e-11
2.51428e-12
-5.40714e-12
-2.19714e-12
1.04613e-12
1.24245e-12
-1.23585e-13
-1.1675e-12
-1.32532e-12
-5.57941e-13
1.0079
1.04117
0.991696
0.793611
0.5
0.223365
0.042154
-0.0343031
-0.0421139
-0.0239644
-0.00647534
0.00197761
0.00332499
0.00186777
0.000400612
-0.000245072
-0.000285991
-0.000129611
-8.12739e-06
3.15022e-05
2.39228e-05
7.25577e-06
-1.97863e-06
-3.44893e-06
-1.76137e-06
-1.8454e-07
3.9124e-07
3.18273e-07
9.93708e-08
-2.70431e-08
-4.76327e-08
-2.40298e-08
-1.98872e-09
5.83869e-09
4.53147e-09
1.30411e-09
-4.8547e-10
-7.28776e-10
-3.58329e-10
-3.51786e-11
7.46808e-11
5.66531e-11
1.63257e-11
-2.31232e-12
-1.84832e-12
3.24194e-12
4.93506e-12
3.04437e-12
2.82711e-13
-1.52759e-12
0.998871
1.02303
1.04193
0.973194
0.776635
0.5
0.236308
0.0551561
-0.0291433
-0.0442026
-0.0286476
-0.0100134
0.000663016
0.00351519
0.00249279
0.000838178
-0.000110139
-0.000325109
-0.00020245
-4.98925e-05
2.37007e-05
3.12705e-05
1.49634e-05
1.26022e-06
-3.52123e-06
-2.80623e-06
-8.96013e-07
2.13497e-07
4.11962e-07
2.18724e-07
2.69645e-08
-4.68007e-08
-3.99633e-08
-1.32015e-08
3.0238e-09
6.05694e-09
3.24319e-09
4.05201e-10
-6.92433e-10
-5.9845e-10
-2.14888e-10
1.28537e-11
5.43618e-11
2.09232e-11
-6.32205e-12
-8.7703e-12
5.7835e-13
7.67295e-12
8.59134e-12
3.33121e-12
0.997793
1.00507
1.03244
1.03887
0.957846
0.763692
0.5
0.246668
0.0663827
-0.0238073
-0.0451887
-0.0325522
-0.0134733
-0.000959178
0.00341734
0.00301639
0.00131432
9.733e-05
-0.000320961
-0.000268331
-0.000102053
5.40097e-06
3.42592e-05
2.29965e-05
6.2179e-06
-2.43292e-06
-3.56994e-06
-1.78399e-06
-1.83404e-07
4.05353e-07
3.36986e-07
1.12348e-07
-2.342e-08
-5.00187e-08
-2.74957e-08
-3.86626e-09
5.67347e-09
5.13084e-09
1.88233e-09
-1.94235e-10
-6.59544e-10
-3.79247e-10
-7.15225e-11
4.02222e-11
2.18377e-11
-1.75668e-11
-2.88943e-11
-1.62886e-11
8.19488e-13
1.02301e-11
0.999036
0.997843
1.01201
1.03844
1.0343
0.944844
0.753332
0.5
0.255249
0.0762288
-0.0184971
-0.0453946
-0.0357829
-0.0167686
-0.00277966
0.00306919
0.00341666
0.00179625
0.000362307
-0.000271062
-0.000319196
-0.000159502
-2.26983e-05
3.14482e-05
3.00039e-05
1.24139e-05
-5.01675e-08
-3.78027e-06
-2.69448e-06
-7.8145e-07
2.58337e-07
4.18806e-07
2.17163e-07
2.58592e-08
-4.77683e-08
-4.14079e-08
-1.45552e-08
2.34054e-09
6.03695e-09
3.54336e-09
7.31518e-10
-4.53248e-10
-4.44804e-10
-1.21952e-10
5.70843e-11
5.57016e-11
-8.75645e-12
-4.83097e-11
-4.77584e-11
-1.39699e-11
0.999961
0.997493
0.999962
1.01842
1.04211
1.02914
0.933617
0.744751
0.5
0.262537
0.0849758
-0.0133115
-0.0450396
-0.0384394
-0.0198576
-0.00471768
0.00251112
0.00368607
0.00225945
0.000669094
-0.000176905
-0.000349474
-0.000217239
-5.89605e-05
2.2113e-05
3.47796e-05
1.91931e-05
3.57793e-06
-3.23181e-06
-3.45353e-06
-1.52328e-06
-4.78458e-08
4.30132e-07
3.22853e-07
9.92905e-08
-2.79452e-08
-5.03398e-08
-2.73964e-08
-4.30248e-09
5.06506e-09
4.73458e-09
1.78081e-09
-8.56806e-11
-4.49115e-10
-1.50891e-10
1.17341e-10
1.58491e-10
6.687e-11
-2.92171e-11
-6.24895e-11
1.00021
0.998989
0.996922
1.00302
1.02396
1.0442
1.02381
0.923771
0.737463
0.5
0.268847
0.0928295
-0.00829713
-0.0442768
-0.0406094
-0.0227243
-0.00671456
0.00178129
0.00382595
0.00268654
0.001003
-4.24486e-05
-0.000355818
-0.000270828
-0.000101219
6.15715e-06
3.63677e-05
2.58328e-05
8.25193e-06
-1.80516e-06
-3.89337e-06
-2.32344e-06
-5.08884e-07
3.43432e-07
4.07078e-07
1.89959e-07
1.24107e-08
-4.92877e-08
-3.93157e-08
-1.3413e-08
1.93241e-09
4.96849e-09
2.599e-09
2.11004e-10
-5.74139e-10
-3.08989e-10
1.20838e-10
2.92846e-10
2.29626e-10
2.99293e-11
1.00013
1
0.997981
0.997159
1.00648
1.02865
1.04519
1.0185
0.915024
0.731153
0.5
0.274394
0.0999444
-0.00347339
-0.0432147
-0.0423674
-0.025367
-0.00872811
0.000913719
0.00384278
0.00306586
0.00135109
0.000126998
-0.000336704
-0.000316604
-0.000147094
-1.60181e-05
3.41026e-05
3.16252e-05
1.36644e-05
5.30034e-07
-3.8716e-06
-3.08121e-06
-1.09946e-06
1.40685e-07
4.46112e-07
2.85766e-07
7.2478e-08
-3.43231e-08
-4.65595e-08
-2.29647e-08
-2.64094e-09
4.42455e-09
3.22585e-09
4.04241e-10
-9.49788e-10
-8.01335e-10
-1.47765e-10
3.17964e-10
3.34563e-10
1.00003
1.00026
0.999477
0.997178
0.998022
1.01001
1.03255
1.04539
1.01331
0.90717
0.725606
0.5
0.279329
0.106439
0.00115474
-0.041932
-0.0437761
-0.0277924
-0.0107283
-6.2262e-05
0.00374582
0.00339021
0.00170247
0.000325544
-0.000292008
-0.000351728
-0.000194215
-4.36512e-05
2.76072e-05
3.59346e-05
1.94428e-05
3.72344e-06
-3.28208e-06
-3.69144e-06
-1.77645e-06
-1.8452e-07
4.17442e-07
3.69971e-07
1.46242e-07
-4.73361e-09
-4.65366e-08
-3.08838e-08
-7.40094e-09
3.94282e-09
4.34742e-09
1.01343e-09
-1.31184e-09
-1.6259e-09
-8.66275e-10
1.48566e-10
0.999982
1.00016
1.00019
0.998814
0.996675
0.999337
1.01347
1.03578
1.04504
1.0083
0.900056
0.720671
0.5
0.283765
0.112406
0.00559006
-0.0404869
-0.0448875
-0.0300111
-0.0126941
-0.0011218
0.00354557
0.00365566
0.00204819
0.000547226
-0.000222631
-0.000374149
-0.000240368
-7.57444e-05
1.67655e-05
3.82322e-05
2.51883e-05
7.6591e-06
-2.05837e-06
-4.05161e-06
-2.48088e-06
-6.23724e-07
3.04448e-07
4.24216e-07
2.23028e-07
3.57217e-08
-3.97966e-08
-3.69718e-08
-1.20517e-08
4.06725e-09
6.8362e-09
3.03337e-09
-8.24294e-10
-2.39481e-09
-1.44161e-09
0.999983
1.00003
1.00026
0.999957
0.998132
0.996485
1.00096
1.01677
1.03844
1.04428
1.00347
0.893561
0.716235
0.5
0.287787
0.11792
0.00983944
-0.0389223
-0.0457452
-0.0320359
-0.0146108
-0.00224409
0.00325288
0.00386074
0.00238115
0.000786327
-0.00013018
-0.000382519
-0.000283581
-0.000111168
1.68161e-06
3.81109e-05
3.05039e-05
1.21704e-05
-1.74531e-07
-4.06769e-06
-3.13989e-06
-1.14971e-06
1.03411e-07
4.3525e-07
2.92026e-07
8.08376e-08
-2.99225e-08
-4.39396e-08
-1.87672e-08
3.53698e-09
1.05414e-08
7.18382e-09
1.49758e-09
-2.26959e-09
0.999994
0.999978
1.00012
1.0003
0.999599
0.997507
0.996583
1.00278
1.01986
1.04061
1.04321
0.998845
0.887594
0.712213
0.5
0.291459
0.123039
0.0139117
-0.0372711
-0.0463857
-0.0338802
-0.0164687
-0.00341188
0.00287833
0.00400571
0.00269582
0.00103755
-1.6718e-05
-0.000376093
-0.000322166
-0.000148747
-1.73685e-05
3.52824e-05
3.50101e-05
1.70475e-05
2.3493e-06
-3.66549e-06
-3.67498e-06
-1.71774e-06
-1.71731e-07
4.02519e-07
3.49885e-07
1.27966e-07
-1.96526e-08
-5.55451e-08
-3.19077e-08
-1.4328e-09
1.31029e-08
1.30574e-08
3.82167e-09
1
0.999978
1.00001
1.00021
1.00025
0.999162
0.996984
0.996931
1.00472
1.02272
1.04237
1.04193
0.99441
0.88208
0.708541
0.5
0.294834
0.127814
0.0178165
-0.035558
-0.0468395
-0.0355575
-0.0182615
-0.00461091
0.00243196
0.00409206
0.00298801
0.00129613
0.000115426
-0.000354622
-0.000354734
-0.000187318
-3.99811e-05
2.9568e-05
3.83514e-05
2.20396e-05
5.43484e-06
-2.81167e-06
-4.02275e-06
-2.27967e-06
-4.95229e-07
3.39051e-07
4.05676e-07
1.84573e-07
-4.55306e-09
-7.16129e-08
-5.48292e-08
-1.5851e-08
1.07957e-08
1.5138e-08
1
0.999992
0.999971
1.00006
1.00029
1.00011
0.998686
0.996583
0.997489
1.00671
1.02537
1.04378
1.04049
0.990161
0.876961
0.705166
0.5
0.297951
0.132283
0.0215636
-0.0338022
-0.0471324
-0.0370806
-0.0199854
-0.00582946
0.00192307
0.00412207
0.0032547
0.00155785
0.000263806
-0.000318245
-0.000380173
-0.000225761
-6.5646e-05
2.09032e-05
4.02161e-05
2.68674e-05
8.94157e-06
-1.53389e-06
-4.16282e-06
-2.81099e-06
-8.50349e-07
2.58676e-07
4.75598e-07
2.68651e-07
3.08629e-08
-8.27991e-08
-8.50525e-08
-4.25091e-08
4.94905e-09
1
1
0.99998
0.999981
1.00013
1.00033
0.999903
0.998204
0.996314
0.998219
1.00873
1.02779
1.04489
1.03892
0.986088
0.872186
0.702049
0.5
0.300845
0.136483
0.0251626
-0.0320184
-0.0472861
-0.0384617
-0.0216386
-0.00705794
0.0013602
0.00409857
0.00349378
0.00181902
0.000425969
-0.000267394
-0.00039761
-0.000262993
-9.37388e-05
9.37298e-06
4.03894e-05
3.12744e-05
1.26979e-05
8.59731e-08
-4.13076e-06
-3.33506e-06
-1.25666e-06
1.51661e-07
5.64922e-07
3.98033e-07
1.09015e-07
-6.94456e-08
-1.14328e-07
-5.66725e-08
1
1
0.999995
0.99997
1.00001
1.0002
1.00032
0.999638
0.997741
0.996174
0.999086
1.01073
1.03001
1.04575
1.03727
0.982184
0.867717
0.699155
0.5
0.303542
0.14044
0.0286225
-0.0302183
-0.0473191
-0.0397121
-0.0232206
-0.00828852
0.000751048
0.00402472
0.00370391
0.0020765
0.000599515
-0.000202729
-0.000406393
-0.00029798
-0.000123514
-4.74473e-06
3.88317e-05
3.51177e-05
1.65825e-05
1.96949e-06
-3.98838e-06
-3.91779e-06
-1.78193e-06
-3.62146e-08
6.4529e-07
5.70883e-07
2.46926e-07
-1.33546e-08
-1.12743e-07
1
1
1
0.999986
0.999968
1.00005
1.00027
1.00027
0.999331
0.997313
0.996157
1.00006
1.01269
1.03204
1.04639
1.03556
0.978436
0.863517
0.696458
0.5
0.306067
0.144179
0.0319521
-0.0284107
-0.0472471
-0.0408424
-0.0247318
-0.00951483
0.000102579
0.00390381
0.00388432
0.00232757
0.000782071
-0.000125167
-0.000406156
-0.000329828
-0.000154181
-2.10018e-05
3.57157e-05
3.84508e-05
2.06275e-05
4.14111e-06
-3.74392e-06
-4.61504e-06
-2.51669e-06
-4.00244e-07
6.43823e-07
7.48618e-07
4.44177e-07
3.34896e-08
1
1
1
0.999999
0.999976
0.999976
1.0001
1.00032
1.00018
0.998997
0.996934
0.996254
1.00112
1.01461
1.03388
1.04684
1.0338
0.974837
0.85956
0.693933
0.5
0.308436
0.147722
0.0351593
-0.0266028
-0.0470838
-0.0418621
-0.0261733
-0.0107317
-0.000579
0.00373917
0.00403469
0.00256983
0.000971215
-3.59918e-05
-0.000397002
-0.00035801
-0.000185133
-3.89574e-05
3.13287e-05
4.15069e-05
2.50654e-05
6.81273e-06
-3.25621e-06
-5.38591e-06
-3.50933e-06
-1.03725e-06
4.54955e-07
8.82458e-07
4.99351e-07
1
1
1
1
0.999993
0.999969
0.999995
1.00016
1.00035
1.00004
0.998649
0.99661
0.996454
1.00224
1.01647
1.03556
1.04713
1.03202
0.971377
0.855821
0.691564
0.5
0.310668
0.151087
0.0382517
-0.0248
-0.0468406
-0.0427801
-0.0275469
-0.011935
-0.00128813
0.00353414
0.00415509
0.00280122
0.0011645
6.31044e-05
-0.000379657
-0.00038264
-0.000216282
-5.85142e-05
2.57939e-05
4.45101e-05
3.0236e-05
1.03721e-05
-2.18951e-06
-6.01955e-06
-4.68782e-06
-1.98867e-06
1.77454e-08
8.13443e-07
1
1
1
1
1
0.999985
0.999966
1.00002
1.00022
1.00036
0.999873
0.998298
0.996344
0.996747
1.00341
1.01826
1.03708
1.04729
1.03022
0.968048
0.852278
0.689332
0.5
0.312776
0.154289
0.0412361
-0.0230068
-0.0465278
-0.0436045
-0.0288544
-0.0131214
-0.00201965
0.0032923
0.00424632
0.00302039
0.00135985
0.000170326
-0.000355336
-0.000404541
-0.000248302
-8.02649e-05
1.86965e-05
4.73399e-05
3.63316e-05
1.52259e-05
-8.05475e-08
-6.13272e-06
-5.81681e-06
-3.21614e-06
-2.33683e-07
1
1
1
1
1
0.999999
0.999977
0.999969
1.00006
1.00027
1.00034
0.999674
0.997952
0.996139
0.997122
1.00461
1.01999
1.03846
1.04732
1.02841
0.964841
0.848913
0.687224
0.5
0.314771
0.157342
0.0441189
-0.0212265
-0.046154
-0.0443429
-0.0300982
-0.0142879
-0.00276854
0.00301787
0.00431037
0.00322743
0.00155639
0.000284619
-0.000325058
-0.000424807
-0.00028247
-0.000105575
8.83498e-06
4.92046e-05
4.30714e-05
2.15295e-05
3.47242e-06
-5.24482e-06
-6.71584e-06
-3.33489e-06
1
1
1
1
1
1
0.999994
0.99997
0.999978
1.0001
1.00032
1.00029
0.999453
0.997619
0.995994
0.997568
1.00583
1.02164
1.03971
1.04725
1.0266
0.961748
0.845711
0.685229
0.5
0.316664
0.160259
0.0469062
-0.0194617
-0.0457268
-0.045002
-0.0312805
-0.0154322
-0.00352993
0.00271577
0.00435088
0.00342461
0.00175552
0.000406894
-0.000288429
-0.000443774
-0.000319928
-0.000136168
-5.65581e-06
4.85456e-05
4.94795e-05
2.89158e-05
8.6211e-06
-3.23559e-06
-6.09455e-06
1
1
1
1
1
1
1
0.999988
0.999965
0.999994
1.00015
1.00035
1.00022
0.999214
0.997304
0.995908
0.998077
1.00706
1.02322
1.04084
1.04708
1.0248
0.958764
0.842658
0.683336
0.5
0.318465
0.16305
0.0496038
-0.0177143
-0.0452531
-0.0455888
-0.0324048
-0.0165537
-0.00430029
0.00239055
0.00437238
0.0036162
0.00196138
0.000540967
-0.000242406
-0.000459708
-0.000360491
-0.0001732
-2.67038e-05
4.33316e-05
5.39262e-05
3.64114e-05
1.51109e-05
-1.93985e-06
1
1
1
1
1
1
1
1
0.999981
0.999964
1.00002
1.00019
1.00037
1.00013
0.998962
0.997012
0.995878
0.99864
1.00829
1.02473
1.04186
1.04684
1.02301
0.955881
0.839741
0.681535
0.5
0.320181
0.165726
0.0522171
-0.0159858
-0.0447396
-0.0461116
-0.0334776
-0.0176555
-0.00508017
0.00204362
0.00437778
0.0038066
0.0021797
0.000693329
-0.000180824
-0.000467865
-0.000401514
-0.000216144
-5.53689e-05
3.17279e-05
5.43992e-05
4.35185e-05
1.51001e-05
1
1
1
1
1
1
1
1
0.999996
0.999974
0.999966
1.00004
1.00024
1.00038
1.00002
0.998704
0.996745
0.995901
0.999249
1.00951
1.02617
1.04278
1.04653
1.02123
0.953094
0.83695
0.679819
0.5
0.321819
0.168296
0.0547516
-0.0142776
-0.0441936
-0.0465806
-0.0345097
-0.0187476
-0.00587762
0.00166919
0.00436429
0.00399662
0.00241492
0.000871136
-9.54217e-05
-0.000460665
-0.000437431
-0.000261999
-9.0909e-05
1.25849e-05
5.11082e-05
3.89869e-05
1
1
1
1
1
1
1
1
1
0.999992
0.999968
0.999972
1.00008
1.00028
1.00038
0.999885
0.998442
0.996506
0.995975
0.999897
1.01073
1.02755
1.0436
1.04615
1.01946
0.950397
0.834275
0.67818
0.499998
0.323386
0.170767
0.0572134
-0.0125892
-0.0436211
-0.0470073
-0.0355161
-0.0198472
-0.0067105
0.00125083
0.00431909
0.00417892
0.00266588
0.00107865
2.15532e-05
-0.000429284
-0.000460469
-0.000305226
-0.000130731
-1.22515e-05
4.21719e-05
1
1
1
1
1
1
1
1
1
1
0.999986
0.999964
0.999983
1.00011
1.00032
1.00035
0.999736
0.998181
0.996296
0.996096
1.00058
1.01193
1.02885
1.04434
1.04573
1.01772
0.947786
0.831706
0.67661
0.499995
0.324887
0.173152
0.0596137
-0.0109124
-0.0430199
-0.0473971
-0.0365104
-0.0209749
-0.00760452
0.000761248
0.00421741
0.00433476
0.00292191
0.0013133
0.000173863
-0.000366372
-0.00046243
-0.000338683
-0.000172556
-1.58015e-05
1
1
1
1
1
1
1
1
1
1
0.999999
0.999981
0.999962
0.999998
1.00015
1.00035
1.00032
0.999574
0.997923
0.996116
0.996261
1.00129
1.01312
1.0301
1.045
1.04525
1.01599
0.945254
0.829233
0.6751
0.499985
0.326329
0.175467
0.0619771
-0.0092214
-0.0423685
-0.0477379
-0.0374933
-0.0221453
-0.00858573
0.000167357
0.00402495
0.00443422
0.00316132
0.00156306
0.000358242
-0.000269085
-0.000435951
-0.000364263
-0.000151216
1
1
1
1
1
1
1
1
1
1
1
0.999996
0.999975
0.999962
1.00002
1.00019
1.00038
1.00027
0.9994
0.997672
0.995965
0.996466
1.00202
1.01429
1.03128
1.04559
1.04474
1.01429
0.942796
0.826845
0.673638
0.499968
0.327726
0.177744
0.0643502
-0.00746067
-0.041612
-0.0479849
-0.0384377
-0.0233522
-0.0096679
-0.000559493
0.00370543
0.00444087
0.00335349
0.00180656
0.000562754
-0.000138596
-0.000392335
-0.000304391
1
1
1
1
1
1
1
1
1
1
1
1
0.999992
0.999969
0.999965
1.00004
1.00023
1.0004
1.0002
0.999218
0.99743
0.995845
0.996709
1.00277
1.01543
1.0324
1.04611
1.0442
1.01261
0.940407
0.824528
0.672212
0.49994
0.329095
0.180027
0.066805
-0.00553882
-0.040653
-0.0480497
-0.0392757
-0.0245553
-0.0108388
-0.00143074
0.00323148
0.00432023
0.00346479
0.00201588
0.000770822
6.11766e-06
-0.000316477
1
1
1
1
1
1
1
1
1
1
1
1
1
0.999988
0.999965
0.99997
1.00007
1.00026
1.00041
1.00012
0.999028
0.997198
0.995755
0.996986
1.00353
1.01655
1.03346
1.04657
1.04363
1.01096
0.938081
0.822263
0.670791
0.499878
0.330439
0.18236
0.0694286
-0.00333515
-0.0393548
-0.0477991
-0.0398947
-0.0256726
-0.0120506
-0.00242981
0.00259551
0.00404959
0.00346606
0.00216262
0.000972007
1.45977e-05
1
1
1
1
1
1
1
1
1
1
1
1
1
1
0.999983
0.999962
0.999979
1.00009
1.0003
1.00041
1.00003
0.998833
0.996981
0.995696
0.997293
1.0043
1.01763
1.03447
1.04699
1.04307
1.00936
0.935807
0.819999
0.6693
0.499707
0.331716
0.184756
0.0722956
-0.000723411
-0.0375609
-0.047071
-0.0401474
-0.0265853
-0.0132194
-0.00350759
0.0018165
0.00362634
0.00333446
0.0022737
0.000785112
1
1
1
1
1
1
1
1
1
1
1
1
1
1
0.999998
0.999978
0.99996
0.999991
1.00012
1.00033
1.0004
0.999933
0.998639
0.996781
0.995666
0.997618
1.00505
1.01868
1.03545
1.04742
1.04257
1.00782
0.933524
0.817602
0.667553
0.499237
0.33278
0.187148
0.0754268
0.00239073
-0.0351294
-0.0457034
-0.0398753
-0.0271547
-0.0142353
-0.00458698
0.000942329
0.0030568
0.00315788
0.00180153
1
1
1
1
1
1
1
1
1
1
1
1
1
1
1
0.999994
0.999973
0.99996
1.00001
1.00016
1.00036
1.00037
0.999825
0.998451
0.996599
0.995652
0.99794
1.00579
1.01971
1.03645
1.04793
1.04216
1.00629
0.931054
0.81477
0.665176
0.498097
0.333332
0.189347
0.078748
0.00602901
-0.0319726
-0.0435726
-0.0389417
-0.0272483
-0.0149821
-0.00557192
2.17368e-05
0.0024786
0.00248303
1
1
1
1
1
1
1
1
1
1
1
1
1
1
1
1
0.999991
0.999969
0.999962
1.00002
1.00018
1.00038
1.00035
0.999719
0.998272
0.996426
0.995628
0.998236
1.00651
1.02079
1.03759
1.04863
1.04184
1.00458
0.927998
0.810939
0.661538
0.495691
0.332889
0.191017
0.082065
0.0101107
-0.0280915
-0.0406274
-0.0372644
-0.0267684
-0.0153565
-0.00638348
-0.000827632
0.0019728
1
1
1
1
1
1
1
1
1
1
1
1
1
1
1
1
1
0.999987
0.999966
0.999967
1.00004
1.00021
1.00039
1.00032
0.99962
0.998095
0.996231
0.995561
0.998504
1.00728
1.02206
1.03902
1.04954
1.04143
1.00221
0.923621
0.805216
0.65572
0.4912
0.330801
0.191692
0.0850685
0.0144452
-0.0235915
-0.0369112
-0.0348387
-0.0256735
-0.0152885
-0.00704824
-0.000505698
1
1
1
1
1
1
1
1
1
1
1
1
1
1
1
1
1
0.999999
0.999984
0.999964
0.99997
1.00005
1.00024
1.00042
1.00031
0.999523
0.997889
0.99597
0.995434
0.998808
1.00827
1.02372
1.04084
1.05055
1.04042
0.998336
0.916795
0.796372
0.646568
0.483655
0.326324
0.19083
0.0873719
0.0187521
-0.0186764
-0.032563
-0.0317489
-0.0239509
-0.0150833
-0.00515017
1
1
1
1
1
1
1
1
1
1
1
1
1
1
1
1
1
1
0.999998
0.999982
0.999961
0.999971
1.00007
1.00027
1.00045
1.0003
0.999398
0.997602
0.995612
0.995298
0.999312
1.00972
1.02595
1.04299
1.05115
1.03789
0.991624
0.906019
0.782948
0.632828
0.472081
0.318745
0.187911
0.0885751
0.0227043
-0.0136176
-0.027811
-0.0280686
-0.0222546
-0.0111558
1
1
1
1
1
1
1
1
1
1
1
1
1
1
1
1
1
1
1
0.999998
0.999978
0.999954
0.99997
1.00009
1.00032
1.00051
1.00028
0.999191
0.997189
0.99519
0.995311
1.00028
1.01186
1.02874
1.04502
1.05037
1.03235
0.98035
0.889573
0.763455
0.613357
0.455676
0.307515
0.182533
0.0883384
0.0259858
-0.00873254
-0.0227997
-0.0247299
-0.0165979
1
1
1
1
1
1
1
1
1
1
1
1
1
1
1
1
1
1
1
1.00001
0.999996
0.99997
0.999944
0.999973
1.00013
1.0004
1.00057
1.00019
0.998844
0.996663
0.99485
0.995754
1.00201
1.01476
1.03171
1.04593
1.04664
1.02191
0.962572
0.865771
0.736637
0.587349
0.433984
0.292376
0.174501
0.0864501
0.0283176
-0.00417152
-0.0184891
-0.0187447
1
1
1
1
1
1
1
1
1
1
1
1
1
1
1
1
0.999999
0.999999
1
1.00001
1.00001
0.999991
0.999957
0.999935
0.999995
1.0002
1.00049
1.00056
0.999957
0.998356
0.996154
0.994869
0.996943
1.00462
1.01811
1.03389
1.04411
1.03792
1.00443
0.936432
0.833273
0.701736
0.554529
0.407017
0.273435
0.163876
0.08284
0.0296401
-0.000510411
-0.014738
1
1
1
1
1
1
1
1
1
1
1
1
1
1
1
1
1
0.999999
1
1
1.00001
1
0.99998
0.999944
0.999941
1.00004
1.00029
1.00053
1.00044
0.999577
0.997835
0.995926
0.99558
0.999061
1.00786
1.02097
1.03364
1.03741
1.0219
0.977887
0.900507
0.791381
0.658694
0.515257
0.375301
0.251173
0.150965
0.077633
0.0302555
-0.00241938
1
1
1
1
1
1
1
1
1
1
1
1
1
1
1
1
1
0.999999
0.999999
1
1.00001
1.00001
0.999996
0.999968
0.999942
0.99997
1.00011
1.00034
1.00048
1.00018
0.999139
0.99753
0.996313
0.997198
1.00191
1.01087
1.02173
1.02875
1.02339
0.996414
0.940761
0.85413
0.740235
0.60823
0.470527
0.339825
0.226403
0.136156
0.072502
0.0190246
1
1
1
1
1
1
1
1
1
1
1
1
1
1
1
1
1
1
0.999999
1
1
1
1
0.999988
0.999966
0.99996
1.00001
1.00015
1.00032
1.0003
0.999849
0.998874
0.997766
0.997546
0.999571
1.00468
1.01204
1.01813
1.01667
0.99973
0.959823
0.892386
0.7976
0.680877
0.551783
0.421819
0.301903
0.199697
0.122713
0.0486331
1
1
1
1
1
1
1
1
1
1
1
1
1
1
1
1
1
1
1
1
1
1
1
0.999998
0.999989
0.999979
0.999988
1.00004
1.00012
1.00018
1.00007
0.999676
0.999093
0.99878
0.999513
1.00195
1.00583
1.00912
1.00752
0.9949
0.96458
0.911293
0.833042
0.732176
0.615232
0.49157
0.371436
0.26295
0.176914
0.084796
1
1
1
1
1
1
1
1
1
1
1
1
1
1
1
1
1
1
1
1
1
0.999999
0.999998
0.999999
1
1
0.999999
0.999991
0.99999
1
1.00002
1
0.999957
1
1.00041
1.0014
1.00275
1.00312
0.999615
0.987738
0.962082
0.917673
0.851552
0.764032
0.659127
0.543927
0.427337
0.317024
0.226024
0.120202
1
1
1
1
1
1
1
1
1
1
1
1
1
1
1
1
1
1
1
1
1
0.999998
0.999995
0.999995
1.00001
1.00002
1.00003
1
0.999919
0.999824
0.999801
0.999964
1.0004
1.0011
1.00191
1.00246
1.00205
0.999407
0.992481
0.978353
0.953465
0.914261
0.858126
0.784348
0.694741
0.593629
0.487453
0.381937
0.291377
0.174752
)
;

boundaryField
{
    upperWall
    {
        type            zeroGradient;
    }
    outlet
    {
        type            zeroGradient;
    }
    inlet
    {
        type            fixedValue;
        value           uniform 1;
    }
    lowerWall
    {
        type            fixedValue;
        value           uniform 0;
    }
    frontAndBack
    {
        type            empty;
    }
}


// ************************************************************************* //
