/*--------------------------------*- C++ -*----------------------------------*\
  =========                 |
  \\      /  F ield         | OpenFOAM: The Open Source CFD Toolbox
   \\    /   O peration     | Website:  https://openfoam.org
    \\  /    A nd           | Version:  7
     \\/     M anipulation  |
\*---------------------------------------------------------------------------*/
FoamFile
{
    version     2.0;
    format      ascii;
    class       volScalarField;
    location    "0.9";
    object      T;
}
// * * * * * * * * * * * * * * * * * * * * * * * * * * * * * * * * * * * * * //

dimensions      [0 0 0 1 0 0 0];

internalField   nonuniform List<scalar> 
23686
(
0.509941
0.910643
0.997281
0.975489
1.00718
1.01727
1.00286
1.00909
1.00026
1.00127
0.999751
0.999405
0.999891
0.999662
0.999995
0.99997
1.00001
1.00003
1.00001
1.00002
1
1
0.999999
0.999998
1
0.999999
1
1
1
1
1
1
1
1
1
1
1
1
1
1
1
1
1
1
1
1
1
1
1
1
1
1
1
1
1
1
1
1
1
1
1
1
1
1
1
1
1
1
1
1
1
1
1
1
1
1
1
1
1
1
1
1
1
1
1
1
1
1
1
1
1
1
1
1
1
1
1
1
1
1
1
1
1
1
1
1
1
1
1
1
1
1
1
1
1
1
1
1
1
1
1
1
1
1
1
1
1
1
1
1
1
1
1
1
1
1
1
1
1
1
1
1
1
1
1
1
1
1
1
1
1
1
1
1
1
1
1
1
1
1
1
1
1
1
1
1
1
1
1
1
1
1
1
1
1
1
1
1
1
1
1
1
1
1
1
1
1
1
1
1
1
1
1
1
1
1
1
1
1
0.11164
-0.00310636
-0.000317299
5.52315e-05
-1.03085e-05
1.75243e-07
1.75516e-07
-3.22223e-08
2.01359e-09
3.75098e-10
-1.68621e-10
1.44734e-11
1.36953e-12
-8.03056e-13
9.05056e-14
5.80327e-15
-3.42343e-15
4.66645e-16
-1.89927e-17
-1.49334e-17
3.77392e-18
-1.47921e-19
-6.45616e-20
2.06373e-20
-2.00083e-21
-3.03607e-22
1.09345e-22
-1.6987e-23
-4.10227e-25
6.00228e-25
-2.13003e-25
5.75434e-27
1.03759e-26
-3.1627e-27
-5.53489e-28
2.95813e-28
6.65183e-29
-2.31558e-29
-5.18491e-30
1.53494e-31
1.8193e-31
1.82906e-32
-2.7029e-33
-8.35428e-34
-4.49839e-35
1.31204e-35
2.95225e-36
1.21197e-37
-4.86558e-38
3.30922e-54
-3.17424e-38
2.21422e-37
1.24005e-35
7.6476e-35
-1.29963e-33
-1.56673e-32
-5.85695e-31
-2.32199e-29
-2.6548e-28
-5.17135e-27
-3.20903e-27
3.0599e-25
3.74879e-24
1.72755e-23
-1.96058e-22
-1.86885e-21
1.1097e-20
2.16652e-19
3.05874e-19
-1.2938e-17
4.74063e-17
7.81236e-16
5.5098e-15
1.9179e-14
-1.42296e-13
-6.38036e-13
-4.42472e-15
-6.55882e-12
2.86421e-11
-1.26335e-10
1.99548e-10
1.54993e-09
-2.32022e-09
-1.10576e-08
5.27289e-08
-8.38253e-08
-5.7034e-08
4.18131e-07
1.62422e-07
-2.09178e-06
-8.53569e-06
2.41883e-06
0.00012128
0.00014281
-0.000750718
-0.00267481
-0.00213995
0.0140094
0.0448475
0.0927699
1
1
1
1
1
1
1
1
1
1
1
1
1
1
1
1
1
1
1
1
1
1
1
1
1
1
1
1
1
1
1
1
1
1
1
1
1
1
1
1
1
1
1
1
1
1
1
1
1
1
1
1
1
1
1
1
1
1
1
1
1
1
1
1
1
1
1
1
1
1
1
1
1
1
1
1
1
1
1
1
1
1
1
1
1
1
1
1
1
1
1
1
1
1
1
1
1
1
1
1
0.999999
1
1
1
1
1
1
1
1
1
1
0.999999
0.999998
0.999998
0.999996
0.999997
1
1.00001
1.00003
1.00003
1.00008
1.00006
1.00009
1.00008
1.00002
1.00003
0.999842
0.999882
0.999478
0.999575
0.998868
0.999059
0.997891
0.998221
0.9964
0.996878
0.994176
0.994856
0.990841
0.991851
0.986188
0.987619
0.979897
0.981796
0.971696
0.974087
0.961269
0.964427
0.94824
0.952218
0.932827
0.93746
0.914561
0.920104
0.892987
0.899469
0.868606
0.875761
0.841233
0.849422
0.810046
0.819312
0.776936
0.786486
0.741398
0.751747
0.702928
0.71412
0.663796
0.675464
0.622437
0.63486
0.581664
0.593926
0.540191
0.552757
0.498142
0.510643
0.45683
0.468574
0.415743
0.42724
0.374174
0.385053
0.332872
0.342437
0.292341
0.301218
0.252419
0.261221
0.212038
0.220488
0.175623
0.182121
0.135835
0.0989449
0.140153
-2.42745e-38
0.0675781
0.0139069
-0.00200416
0.000101508
-3.29739e-06
-3.45346e-06
5.32192e-07
-1.86721e-08
-8.67423e-09
1.98581e-09
-2.29594e-10
-3.01286e-11
1.01881e-11
-1.26524e-12
-1.00732e-13
5.22206e-14
-6.12953e-15
-2.58924e-16
1.91466e-16
-4.45188e-17
2.07091e-18
1.20604e-18
-2.50203e-19
1.97496e-20
4.68354e-21
-1.64909e-21
1.64415e-22
1.09656e-23
-8.7662e-24
1.38588e-24
-6.62409e-26
-9.84399e-26
2.58692e-26
-1.02499e-27
-1.91071e-27
1.62336e-28
2.00619e-28
-8.07453e-30
-1.44227e-29
-1.0022e-30
2.86768e-31
7.32834e-32
4.49267e-34
-1.92728e-33
-2.57975e-34
9.22597e-36
7.55466e-36
8.50245e-37
-5.04941e-38
-0.00133342
-3.10266e-38
0.0737032
4.43499e-38
1.14644e-36
-1.26407e-34
1.04251e-33
2.27122e-33
2.87643e-34
5.78868e-30
7.92651e-29
1.08358e-27
1.49971e-26
-9.88044e-26
-9.86792e-25
-9.69535e-24
1.34224e-25
8.54847e-22
1.53519e-21
-6.93129e-20
-4.72014e-19
2.96134e-18
1.69144e-17
-2.9112e-16
-1.8668e-15
-1.45641e-14
1.65004e-14
4.01352e-13
3.75907e-13
2.09691e-12
2.77952e-13
-2.20266e-11
2.40639e-10
-1.19854e-09
3.05758e-10
1.99265e-09
8.78703e-09
-3.62905e-08
3.22655e-09
-9.34948e-08
1.11121e-06
-5.11811e-07
-4.81396e-06
-1.38854e-05
5.21215e-05
0.000199428
-0.000116437
-0.001686
-0.00367013
0.0042676
0.0314574
0.000148593
0.0642368
-2.77272e-05
0.453368
0.000140418
1.57756e-06
-1.07378e-05
1.40764e-06
-1.25929e-08
-2.71604e-08
5.36429e-09
-5.3326e-10
-1.0663e-10
2.86304e-11
-3.09298e-12
-3.83719e-13
1.51936e-13
-1.55512e-14
-1.3025e-15
5.45708e-16
-1.17123e-16
3.48108e-18
3.73292e-18
-6.75976e-19
4.3902e-20
1.49941e-20
-4.60296e-21
3.81077e-22
4.30844e-23
-2.48616e-23
3.53965e-24
-1.97541e-25
-2.55442e-25
7.03111e-26
-4.9549e-27
-5.90122e-27
8.05718e-28
6.30233e-28
-2.49983e-29
-4.71172e-29
-3.89636e-30
9.66551e-31
2.56251e-31
3.94188e-33
-6.72213e-33
-9.58007e-34
1.85787e-35
2.65159e-35
3.14264e-36
-9.79678e-38
-7.896e-38
1.51398e-36
-8.72888e-35
9.76919e-34
1.1998e-33
8.89352e-33
3.48127e-30
1.81565e-29
2.56524e-28
6.57243e-27
-9.8495e-26
-7.50202e-25
-6.46412e-24
1.76324e-23
7.17642e-22
8.22039e-22
-5.08929e-20
-2.85304e-19
2.10036e-18
6.61779e-18
-2.40461e-16
-1.24642e-15
-9.54295e-15
1.53042e-14
2.40938e-13
6.20397e-14
1.67783e-12
2.33648e-12
-1.87038e-11
1.59796e-10
-8.20686e-10
5.03958e-10
2.71546e-11
1.02385e-08
-2.87939e-08
-1.62002e-08
-4.69815e-08
1.00729e-06
-5.87681e-07
-5.1749e-06
-1.28246e-05
5.62318e-05
0.000198502
-0.000155804
-0.00182205
-0.00358859
0.0053303
0.0334258
2.69299e-38
-1.13217e-07
5.32847e-07
-8.58979e-08
3.92802e-09
1.22829e-09
-4.57859e-10
3.2832e-11
4.88649e-12
-2.1794e-12
2.26184e-13
2.2301e-14
-9.29588e-15
1.09139e-15
-2.83699e-17
-4.48149e-17
9.80857e-18
-2.2407e-19
-2.01571e-19
5.36854e-20
-4.08486e-21
-1.02008e-21
3.03865e-22
-3.87609e-23
-2.09056e-24
1.58227e-24
-5.31852e-25
1.4379e-26
2.71451e-26
-1.07897e-26
-1.40078e-27
1.05812e-27
2.01497e-28
-6.88798e-29
-1.84412e-29
4.68068e-31
6.10528e-31
6.89784e-32
-8.88587e-33
-2.99921e-33
-1.9507e-34
4.43396e-35
1.07317e-35
5.41218e-37
-1.38142e-37
3.51766e-36
2.51321e-35
-1.02714e-33
-1.76275e-32
-3.31209e-31
-1.10458e-29
-5.22701e-29
-2.24404e-27
8.63629e-27
2.62144e-25
2.78875e-24
7.65992e-24
-1.98969e-22
-1.45939e-21
9.19839e-21
1.56416e-19
1.17926e-19
-8.1728e-18
5.16612e-17
6.07066e-16
3.72171e-15
1.16397e-14
-1.02911e-13
-3.58213e-13
2.17034e-13
-5.90461e-12
2.03768e-11
-8.5481e-11
1.7773e-10
9.25703e-10
-1.59423e-09
-8.18489e-09
4.29753e-08
-7.42302e-08
-5.77561e-08
4.28686e-07
2.47507e-07
-2.21779e-06
-9.29557e-06
5.10445e-06
0.000128738
0.000135302
-0.000831075
-0.00285398
-0.0016209
0.0165466
0.0480967
-0.00528114
-0.00556021
2.32312e-37
0.594883
-0.00160947
0.942444
1.00339
0.979133
1.00791
1.01325
1.00265
1.00761
0.999944
1.00096
0.999656
0.999356
0.999885
0.999649
1
0.999959
1.00002
1.00003
1.00001
1.00002
1
1
0.999999
0.999998
1
0.999999
1
1
1
1
1
1
1
1
1
1
1
1
1
1
1
1
1
1
1
1
1
1
1
1
1
1
1
1
1
1
1
1
1
1
1
1
1
1
1
1
1
1
1
1
1
1
1
1
1
1
1
1
1
1
1
1
1
1
1
1
1
1
1
1
1
1
1
1
1
1
1
1
1
1
1
1
1
1
1
1
1
1
1
1
1
1
1
1
1
1
1
1
1
1
1
1
1
1
1
1
1
1
1
1
1
1
1
1
1
1
1
1
1
1
1
1
1
1
1
1
1
1
1
1
1
1
1
1
1
1
1
1
1
1
1
1
1
1
1
1
1
1
1
1
1
1
1
1
1
1
1
1
1
1
1
1
1
1
1
1
1
1
1
1
1
1
1
1
1
4.59402e-37
0.00261077
0.000236229
0.235597
-1.05639e-05
-3.43467e-06
7.57138e-07
-5.52954e-08
-7.56084e-09
3.24048e-09
-3.78286e-10
-2.40992e-11
1.56869e-11
-2.161e-12
-8.04911e-14
7.115e-14
-1.06668e-14
4.16065e-16
2.82512e-16
-7.50392e-17
4.59952e-18
1.38989e-18
-4.10391e-19
4.32091e-20
4.8414e-21
-2.31766e-21
3.30355e-22
1.34843e-24
-1.08532e-23
3.05268e-24
-2.6497e-25
-1.31917e-25
5.69779e-26
-3.61515e-27
-5.12491e-27
3.16576e-29
4.64416e-28
3.65811e-29
-1.8911e-29
-3.2981e-30
2.25227e-31
1.3606e-31
1.03786e-32
-2.43926e-33
-6.02985e-34
-3.26237e-35
6.63521e-36
1.68074e-36
9.5338e-38
-6.23906e-36
-0.00445074
-0.00527208
-0.00421271
-1.69922e-38
0.0918296
0.122063
-1.31586e-05
-1.12008e-05
0.517419
1.72405e-34
-1.73927e-33
-2.47879e-32
-9.64977e-32
-1.26816e-29
-5.09887e-29
-2.14096e-27
-2.21253e-27
3.22676e-25
3.33339e-24
1.3575e-23
-1.88288e-22
-2.1835e-21
6.41011e-21
2.08549e-19
5.24995e-19
-1.07965e-17
3.61738e-17
8.05223e-16
4.67277e-15
2.30833e-14
-1.15602e-13
-6.61767e-13
2.15832e-13
-8.37706e-12
2.47844e-11
-8.47778e-11
3.79165e-11
1.82028e-09
-2.27556e-09
-1.07283e-08
5.11114e-08
-8.53987e-08
-8.66534e-08
7.4484e-07
-2.25353e-07
-3.47736e-06
-1.22617e-05
2.07779e-05
0.00017875
7.41503e-05
-0.00132408
-0.00366009
0.000299026
0.0266596
0.0580722
0.0821602
0.0528654
0.185682
0.025489
7.61732e-05
0.000473589
6.62957e-05
7.89362e-06
1
1
1
1
1
1
1
1
1
1
1
1
1
1
1
1
1
1
1
1
1
1
1
1
1
1
1
1
1
1
1
1
1
1
1
1
1
1
1
1
1
1
1
1
1
1
1
1
1
1
1
1
1
1
1
1
1
1
1
1
1
1
1
1
1
1
1
1
1
1
1
1
1
1
1
1
1
1
1
1
1
1
1
1
1
1
1
1
1
1
1
1
1
1
1
1
0.999999
1
1
1
1
1
1
1
1
1
1
0.999999
0.999999
0.999998
0.999996
0.999996
0.999996
0.999995
1.00001
1.00001
1.00005
1.00003
1.00008
1.00007
1.00008
1.00008
0.999989
1.00004
0.999796
0.999909
0.999425
0.999634
0.998833
0.999165
0.997895
0.998415
0.996403
0.997228
0.994085
0.99524
0.990727
0.992402
0.986073
0.988328
0.979742
0.982777
0.971315
0.97516
0.961054
0.965745
0.948291
0.954257
0.932711
0.939694
0.91448
0.922546
0.893047
0.902526
0.868295
0.878987
0.841008
0.852488
0.810461
0.823701
0.776635
0.79083
0.740791
0.755344
0.703095
0.718735
0.664241
0.679861
0.624003
0.640774
0.582997
0.599719
0.541941
0.558904
0.499802
0.516927
0.457016
0.473696
0.415032
0.430696
0.372821
0.388775
0.327805
0.34299
0.285012
0.298284
0.245808
0.257438
0.207815
0.221196
0.759785
5.21248e-38
-0.000422185
0.806072
5.05592e-37
0.000213928
1.64021e-36
8.03877e-38
6.51626e-07
1.63027e-07
-4.58153e-08
4.84777e-09
4.09135e-10
-2.17895e-10
2.77077e-11
1.32196e-12
-1.08696e-12
1.45737e-13
3.00486e-15
-4.18002e-15
9.06009e-16
-5.14108e-17
-2.18172e-17
5.59949e-18
-4.32208e-19
-8.35615e-20
3.26657e-20
-3.80506e-21
-2.27473e-22
1.6914e-22
-2.92941e-23
1.52536e-24
1.06793e-24
-4.18316e-25
4.22314e-26
1.8769e-26
-8.14292e-27
-1.68745e-27
5.56925e-28
2.04151e-28
-1.81278e-29
-9.34723e-30
-5.73831e-31
2.68569e-31
4.78499e-32
-9.5632e-34
-1.49092e-33
-1.78295e-34
3.61466e-36
3.87695e-36
4.37704e-37
-2.07689e-36
-2.0881e-07
-1.01042e-34
1.12766e-33
-4.53346e-34
2.24057e-33
3.63972e-30
2.00752e-29
1.41232e-28
9.67109e-27
-1.02145e-25
-7.74633e-25
-8.8873e-24
-1.36067e-24
8.28676e-22
2.56952e-21
-5.5098e-20
-4.08971e-19
1.68795e-18
1.79386e-17
-2.67846e-16
-1.54316e-15
-1.32333e-14
2.42018e-15
3.22778e-13
4.22212e-13
1.5744e-12
7.98004e-12
-4.61187e-11
2.83533e-10
-1.03901e-09
-2.71033e-10
1.66548e-10
2.38661e-08
-7.0439e-08
6.1075e-09
2.01716e-08
1.19196e-06
-1.13986e-06
-7.33308e-06
-1.30957e-05
9.26723e-05
0.000233358
-0.000385954
-0.00255766
-0.00384205
0.0110384
0.0498151
1.61869e-06
-3.69776e-12
2.12506e-36
3.80224e-11
0.168727
-2.75324e-05
-1.26064e-10
0.0258401
-0.00057493
-0.00369337
-0.0011942
0.000122388
0.000174236
1.39297e-05
-1.26186e-05
-3.10653e-06
7.51604e-08
6.50331e-07
-8.77158e-08
-8.75605e-08
5.20497e-08
-1.03188e-08
-1.99172e-09
1.29537e-09
1.63799e-10
-9.55701e-11
2.30957e-11
-8.29037e-12
4.00797e-13
-4.73707e-13
-1.18512e-13
1.68196e-14
4.44977e-15
7.78366e-16
6.11874e-17
-9.99701e-18
2.16816e-19
1.91906e-19
1.02309e-20
-2.04476e-21
-2.44953e-22
8.85109e-24
3.47065e-24
3.33319e-25
1.39447e-26
-1.40538e-27
2.62734e-29
-9.79652e-30
-3.03703e-31
-2.45727e-32
3.84521e-37
4.65376e-36
1.546e-35
-1.29525e-34
-1.78296e-33
-4.87691e-33
3.79935e-32
3.90779e-31
2.23898e-31
-9.91783e-30
-4.46775e-29
1.5372e-28
1.12297e-27
-3.2486e-28
-1.35746e-26
-3.08636e-27
1.27844e-25
-3.70019e-25
-1.43061e-25
6.03603e-24
-2.99218e-23
6.62931e-23
4.90157e-22
-5.7144e-21
2.15257e-20
4.9494e-20
-9.17941e-19
4.62336e-18
1.2975e-20
-1.53547e-16
8.68354e-16
-6.2202e-16
-1.79555e-14
1.8342e-13
-5.72659e-13
0.0505103
0.00959838
-0.00414167
-0.00245601
-0.000294419
0.000245667
8.30601e-05
-1.5075e-05
-7.05436e-06
-8.71375e-07
1.22973e-06
-1.73908e-08
-1.31e-08
-5.11039e-08
1.88731e-08
-5.55445e-10
4.44048e-10
-9.93363e-10
2.16238e-10
-3.14003e-11
5.89043e-12
1.88732e-12
9.2458e-14
2.96891e-13
1.48764e-14
-1.21144e-14
-1.49389e-15
-3.00477e-16
9.50189e-18
2.35498e-18
-3.38908e-19
-6.12088e-20
1.65754e-21
9.3836e-22
1.88404e-23
-8.01324e-24
-8.2931e-25
-1.2956e-25
5.98253e-27
-4.34774e-29
7.45095e-30
-9.85422e-35
1.56542e-36
1.00762e-35
-5.1857e-36
-5.8084e-34
-3.8838e-33
1.99839e-33
1.43526e-31
6.3434e-31
-2.33825e-30
-2.56121e-29
-2.25719e-29
5.8185e-28
1.22765e-27
-5.05291e-27
-1.91442e-26
5.44779e-26
4.50292e-26
-8.42546e-25
2.88379e-24
-8.80044e-25
-5.07847e-23
4.31106e-22
-1.27762e-21
-5.00382e-21
7.69071e-20
-2.99337e-19
-2.87806e-19
1.18191e-17
-6.81383e-17
8.12686e-18
1.81332e-15
-1.13034e-14
3.26878e-14
2.27851e-13
-2.81782e-12
8.26066e-12
4.07321e-11
-5.316e-10
1.9919e-09
6.03971e-09
-1.04476e-07
5.89488e-07
7.83204e-09
-3.02927e-08
-3.21944e-08
-5.64741e-10
-1.35846e-33
5.43721e-35
1.32196e-33
4.75151e-35
5.20135e-33
3.87027e-30
0.000277452
0.982244
1.00991
1.00371
1.00638
1.01397
1.00125
1.00491
0.999712
1.00021
0.999713
0.999455
0.999923
0.999743
1.00001
0.999978
1.00002
1.00003
1
1.00001
0.999999
1
0.999999
0.999998
1
0.999999
1
1
1
1
1
1
1
1
1
1
1
1
1
1
1
1
1
1
1
1
1
1
1
1
1
1
1
1
1
1
1
1
1
1
1
1
1
1
1
1
1
1
1
1
1
1
1
1
1
1
1
1
1
1
1
1
1
1
1
1
1
1
1
1
1
1
1
1
1
1
1
1
1
1
1
1
1
1
1
1
1
1
1
1
1
1
1
1
1
1
1
1
1
1
1
1
1
1
1
1
1
1
1
1
1
1
1
1
1
1
1
1
1
1
1
1
1
1
1
1
1
1
1
1
1
1
1
1
1
1
1
1
1
1
1
1
1
1
1
1
1
1
1
1
1
1
1
1
1
1
1
1
1
1
1
1
1
1
1
1
1
1
1
1
1
3.19667e-30
-1.11632e-05
3.27835e-13
1.44359e-33
0.18455
1.42477e-11
-3.23756e-09
2.78352e-09
1.07784e-06
6.55844e-08
-4.30315e-08
-2.53936e-08
5.86964e-09
8.24713e-09
7.47404e-09
0.0387515
0.140532
-1.9338e-10
-8.49958e-11
1.37852e-36
3.38049e-11
3.91351e-11
0.0702003
-2.28108e-12
4.52075e-14
5.5127e-14
-1.30451e-14
9.19208e-16
2.33718e-16
-7.67778e-17
7.8595e-18
8.18256e-19
-4.37111e-19
5.57941e-20
1.5294e-21
-2.11413e-21
4.01661e-22
-2.69195e-23
-7.97788e-24
4.0406e-24
-6.42298e-25
-9.67196e-26
9.62543e-26
-4.36529e-27
-8.30797e-27
-5.00986e-28
5.4827e-28
7.6532e-29
-1.40841e-29
-4.93331e-30
-1.46325e-31
1.3505e-31
2.31357e-32
-3.87345e-34
-5.26584e-34
-5.67223e-35
1.7832e-36
-1.66997e-05
-2.49828e-05
1.97186e-32
-2.75621e-33
2.18714e-34
1.69842e-33
-3.11016e-32
7.14806e-33
-1.44297e-32
-2.13551e-31
3.72411e-30
-8.20779e-35
8.02853e-35
-4.30061e-30
-4.31204e-28
5.7338e-27
-1.30682e-25
-8.0698e-25
-9.60729e-24
4.53266e-24
1.053e-21
3.63877e-21
-5.55426e-20
-4.52013e-19
1.55817e-18
1.88246e-17
-3.13972e-16
-1.75948e-15
-1.46197e-14
-4.01104e-15
3.56027e-13
4.61558e-13
1.46883e-12
1.4532e-11
-6.2567e-11
3.10579e-10
-1.0475e-09
-6.33188e-10
-1.11077e-09
3.68402e-08
-1.03067e-07
6.58619e-09
1.33123e-07
1.26198e-06
-1.56347e-06
-9.88841e-06
-1.09551e-05
0.000130629
0.00025969
-0.000649852
-0.00329524
-0.00383514
0.0173949
0.0355925
-1.62993e-06
-7.78345e-06
1.07711e-06
1
1
1
1
1
1
1
1
1
1
1
1
1
1
1
1
1
1
1
1
1
1
1
1
1
1
1
1
1
1
1
1
1
1
1
1
1
1
1
1
1
1
1
1
1
1
1
1
1
1
1
1
1
1
1
1
1
1
1
1
1
1
1
1
1
1
1
1
1
1
1
1
1
1
1
1
1
1
1
1
1
1
1
1
1
1
1
1
1
1
1
1
1
1
1
1
1
1
1
1
1
1
1
1
0.999999
0.999999
0.999997
0.999997
0.999994
0.999995
0.999997
0.999995
1.00002
1.00001
1.00005
1.00004
1.00008
1.00007
1.00006
1.00008
0.999983
1.00004
0.999815
0.999923
0.999495
0.99969
0.998972
0.999288
0.998116
0.998616
0.996748
0.997514
0.994556
0.995724
0.991376
0.992993
0.987001
0.989194
0.980897
0.98386
0.972829
0.976638
0.962997
0.967438
0.95085
0.956603
0.935908
0.942751
0.918199
0.926287
0.897209
0.90656
0.873115
0.883718
0.846333
0.857954
0.816324
0.829323
0.783333
0.797413
0.747392
0.762163
0.709838
0.725366
0.671405
0.686855
0.632021
0.648518
0.591779
0.60838
0.550764
0.567215
0.508283
0.525293
0.464623
0.481415
0.421429
0.437994
0.377678
0.393968
0.330426
0.346309
0.285001
0.299122
0.242326
0.25355
3.09839e-05
-1.13942e-05
0.0989193
-0.00459306
-4.40635e-10
-5.18254e-10
-0.000867393
7.78045e-05
0.132048
8.49005e-37
0.572277
2.40678e-36
-3.07307e-32
0.872928
0.179989
1.42844e-09
9.19173e-11
6.45133e-07
-8.21647e-08
-2.34452e-33
1.50348e-06
5.74375e-11
0.0935539
-1.28837e-14
-8.77943e-13
1.70705e-13
-8.67778e-15
-3.56019e-15
9.99657e-16
-9.07143e-17
-1.42575e-17
5.75521e-18
-6.947e-19
-5.01093e-20
2.94476e-20
-4.77015e-21
5.67186e-23
1.3386e-22
-3.5862e-23
4.66865e-24
8.23487e-25
-5.44808e-25
1.13322e-25
3.22104e-26
-1.28761e-26
-3.41433e-27
5.62749e-28
2.72324e-28
-1.16002e-31
-1.06326e-29
-1.5228e-30
1.63593e-31
6.57547e-32
4.92023e-33
-9.20452e-34
-2.06215e-34
-9.16376e-36
6.53328e-12
-1.5141e-35
0.0664329
0.0179633
-0.003371
-1.95954e-33
-1.70439e-33
1.11411e-36
0.921152
1.54532e-28
9.32337e-29
-9.68414e-30
-6.56591e-28
-7.78343e-30
7.02575e-29
7.66111e-27
3.82585e-25
3.79892e-24
1.28158e-23
-2.22675e-22
-2.55696e-21
6.35192e-21
2.09768e-19
5.73564e-19
-1.07808e-17
4.27071e-17
9.31736e-16
4.78681e-15
2.61413e-14
-1.12709e-13
-6.68332e-13
4.37506e-13
-1.05624e-11
1.89458e-11
-6.54135e-11
-5.08228e-11
2.10433e-09
-2.28273e-09
-1.01764e-08
4.72749e-08
-8.13769e-08
-1.18989e-07
1.03915e-06
-6.00446e-07
-4.75335e-06
-1.55288e-05
3.99883e-05
0.000228873
-6.22937e-06
-0.0018606
-0.00441754
0.00283817
0.000195338
5.29532e-28
0.204716
0.0738136
0.000138865
0.0147621
-0.00444928
-0.00320978
-0.000524151
0.000283063
0.000118336
-1.45525e-05
-9.5512e-06
-1.23143e-06
1.38061e-06
6.93252e-08
-1.26916e-08
-8.0606e-08
3.08489e-08
-1.83505e-09
2.70561e-10
-1.10295e-09
2.49009e-10
-4.6254e-11
1.17145e-11
1.82963e-12
8.98228e-14
3.42045e-13
1.13992e-14
-1.32123e-14
-1.73184e-15
-3.53745e-16
1.06561e-17
2.45087e-18
-4.04073e-19
-6.18996e-20
2.62048e-21
-1.51268e-36
-1.93276e-34
-1.35791e-33
1.59997e-33
6.92624e-32
3.25856e-31
-9.35391e-31
-1.33918e-29
-2.58967e-29
2.63665e-28
1.20937e-27
-2.46736e-27
-2.14014e-26
3.45013e-27
2.21114e-25
-3.64716e-25
-7.74366e-25
8.61317e-24
-2.83938e-23
1.39637e-23
7.00292e-22
-5.70511e-21
1.61975e-20
7.36367e-20
-1.06091e-18
3.95147e-18
6.76978e-18
-1.71103e-16
8.42125e-16
-3.19584e-18
-2.72054e-14
-1.09124e-07
-6.80647e-10
0.00134098
-0.00451115
-0.00171952
6.553e-05
0.00022585
2.98982e-05
-1.62387e-05
-4.21565e-06
-2.09572e-07
9.33858e-07
-1.21177e-07
-9.12961e-08
5.27706e-08
-1.03978e-08
-2.21705e-09
1.58576e-09
1.13138e-10
-8.74951e-11
2.00988e-11
-1.03458e-11
6.82641e-13
-4.89017e-13
-1.2731e-13
1.96495e-14
4.62469e-15
8.87567e-16
6.93316e-17
-1.07128e-17
2.3364e-19
2.00911e-19
9.2865e-21
-0.00678227
-0.0031757
-0.00995505
-2.45628e-21
-2.81746e-22
8.65056e-24
3.79636e-24
3.8892e-25
2.47894e-26
-3.98283e-35
-5.86763e-34
-1.81156e-33
1.94362e-32
1.78541e-31
2.49407e-31
-4.9742e-30
-2.47894e-29
3.50347e-29
7.36419e-28
7.14333e-28
-9.60681e-27
-2.60792e-26
9.76036e-26
1.67717e-25
-1.17989e-24
2.95911e-24
4.15475e-24
-7.09112e-23
3.93935e-22
-8.60049e-22
-7.27727e-21
7.4278e-20
-2.8418e-19
-7.84093e-19
1.30762e-17
-5.81549e-17
-4.37007e-17
2.08494e-15
-1.163e-14
7.8748e-15
2.89892e-13
-2.47506e-12
3.54725e-36
0.64697
-1.08125e-35
3.93953e-07
-1.16855e-07
3.42433e-36
1.64759e-13
-3.26549e-13
-3.84306e-12
5.24523e-36
-8.96861e-35
1.13485e-21
2.54345e-23
-8.37124e-24
-8.91794e-25
-1.83498e-29
-1.6188e-25
2.27987e-27
0.00045649
-8.04472e-08
0.0249319
1.23815e-21
1.00293
1.00828
1.01211
1.00307
1.00796
1.00022
1.00185
0.999626
0.999683
0.999808
0.999572
0.999981
0.999882
1.00002
1.00002
1.00001
1.00003
1
1.00001
0.999999
0.999999
0.999999
0.999998
1
0.999999
1
1
1
1
1
1
1
1
1
1
1
1
1
1
1
1
1
1
1
1
1
1
1
1
1
1
1
1
1
1
1
1
1
1
1
1
1
1
1
1
1
1
1
1
1
1
1
1
1
1
1
1
1
1
1
1
1
1
1
1
1
1
1
1
1
1
1
1
1
1
1
1
1
1
1
1
1
1
1
1
1
1
1
1
1
1
1
1
1
1
1
1
1
1
1
1
1
1
1
1
1
1
1
1
1
1
1
1
1
1
1
1
1
1
1
1
1
1
1
1
1
1
1
1
1
1
1
1
1
1
1
1
1
1
1
1
1
1
1
1
1
1
1
1
1
1
1
1
1
1
1
1
1
1
1
1
1
1
1
0.69948
1
1.02367e-36
0.113514
-2.17802e-35
0.154122
0.228572
5.73605e-09
-1.50644e-10
5.09911e-07
-2.28502e-08
-3.28436e-32
-4.40342e-10
-4.58045e-10
1.22949e-06
1.81553e-06
1.39007e-06
-2.83081e-35
9.17738e-12
-2.12957e-12
3.98611e-09
2.7054e-07
-1.14256e-07
1.76609e-13
-1.49881e-14
-2.05726e-15
8.95276e-16
-1.10758e-16
-5.92732e-18
4.90681e-18
-7.57271e-19
2.64913e-21
2.32879e-20
-4.90722e-21
3.73434e-22
7.60232e-23
-3.59093e-23
7.73156e-24
1.93294e-25
-7.09774e-25
1.84367e-25
6.01709e-26
-1.39823e-26
-5.42648e-27
2.67553e-28
2.96949e-28
2.48921e-29
-8.03694e-30
-2.07615e-30
-5.04629e-32
5.0373e-32
7.48505e-33
-2.42488e-34
3.05879e-11
3.00202e-11
0.0875279
-0.00734108
2.6213e-34
-1.70646e-25
0.117001
-9.13048e-30
-1.08861e-27
-0.000126951
-1.63621e-34
3.46961e-28
2.01603e-26
3.74514e-26
-2.01378e-25
-8.55397e-25
-1.00395e-23
1.04338e-23
-2.38709e-22
-3.02771e-22
1.24295e-21
-6.75746e-35
-6.53004e-35
4.74945e-21
-5.78065e-20
-5.08969e-19
1.66789e-18
2.00613e-17
-3.67881e-16
-2.11729e-15
-1.52031e-14
-9.89093e-15
3.92465e-13
4.63934e-13
1.06816e-12
2.29588e-11
-7.55582e-11
3.27101e-10
-1.06779e-09
-9.89583e-10
-2.87479e-09
5.16942e-08
-1.40231e-07
1.65443e-10
3.09897e-07
1.28178e-06
-2.07617e-06
-1.30735e-05
-5.59654e-06
0.000176954
0.000272917
-0.00101492
-0.00421074
-0.0034486
-5.53047e-33
-3.27957e-32
2.23148e-27
2.60916e-27
-3.19913e-27
1
0.463776
1
1
1
1
1
1
1
1
1
1
1
1
1
1
1
1
1
1
1
1
1
1
1
1
1
1
1
1
1
1
1
1
1
1
1
1
1
1
1
1
1
1
1
1
1
1
1
1
1
1
1
1
1
1
1
1
1
1
1
1
1
1
1
1
1
1
1
1
1
1
1
1
1
1
1
1
1
1
1
1
1
1
1
1
1
1
1
1
1
1
1
1
1
1
1
1
1
1
1
1
0.999999
0.999999
0.999996
0.999997
0.999994
0.999994
0.999999
0.999996
1.00002
1.00001
1.00005
1.00004
1.00007
1.00006
1.00005
1.00007
0.999988
1.00003
0.999845
0.999942
0.999578
0.999752
0.999131
0.999425
0.998366
0.998836
0.997105
0.997835
0.995077
0.996209
0.992123
0.993679
0.988011
0.990136
0.982107
0.985072
0.974528
0.978192
0.965116
0.969676
0.953512
0.959181
0.93933
0.94603
0.922213
0.930347
0.901688
0.910942
0.87843
0.888995
0.852074
0.86398
0.82239
0.8355
0.790333
0.804095
0.754363
0.769953
0.71719
0.732736
0.679361
0.695547
0.640324
0.657363
0.600714
0.617522
0.559676
0.577436
0.515631
0.533555
0.472165
0.489468
0.428683
0.446129
0.382702
0.39982
0.332796
0.349132
0.28552
0.30175
0.237329
0.252256
0.000126296
0.000292128
0.000347145
0.000322973
0.756643
-3.03014e-21
3.62177e-21
-3.2302e-33
-6.00155e-33
-1.85901e-10
-7.56028e-10
0.0507693
0.0466388
0.0834827
0.00621048
0.0218348
1.81937e-33
-2.30651e-33
1.94387e-28
-1.30035e-27
-5.65501e-35
-7.02296e-35
1.16537e-34
1.80466e-13
3.62398e-13
-0.00272339
-0.00153449
2.10317e-33
-1.7063e-34
-1.78454e-35
1.86712e-32
7.87316e-33
3.20877e-32
0.153915
-5.78561e-11
1.39308e-11
-4.82742e-23
-5.41411e-23
-1.82289e-05
0.211399
2.00754e-09
8.79746e-21
-1.81404e-21
1.26142e-09
9.46367e-09
2.45708e-12
-1.47915e-12
-9.18576e-19
-3.34235e-19
0.00392362
1.16643e-17
9.35573e-18
-3.9272e-12
-5.3111e-13
3.84608e-14
-1.21862e-14
1.34314e-15
1.22738e-16
-6.61084e-17
1.23808e-17
3.18834e-19
-1.60403e-19
6.02305e-20
-8.49134e-21
-1.47017e-21
4.05833e-22
-8.17584e-23
-2.40214e-24
4.28128e-24
-1.19625e-24
-5.20686e-26
1.54176e-25
1.86636e-27
-1.16067e-26
-1.31977e-27
4.65388e-28
1.18482e-28
-4.98102e-30
-4.79815e-30
-5.99065e-31
6.51529e-32
2.268e-32
1.35669e-33
5.2181e-11
-3.20679e-34
0.11616
-1.59745e-16
-1.22579e-11
-1.21565e-11
3.08792e-14
1.50364e-13
6.44554e-16
1.07202e-15
0.18975
0.935175
3.01339e-30
3.44766e-30
-6.94509e-30
-0.00740284
5.97709e-09
0.96961
-2.8247e-21
-4.1444e-34
0.80381
-2.37463e-29
4.49807e-25
3.75246e-24
1.32558e-23
7.63906e-21
3.79737e-21
0.0569193
-6.48729e-20
0.202537
2.17907e-19
5.69463e-19
-1.09563e-17
4.66304e-17
1.0125e-15
4.65802e-15
2.99186e-14
-1.17653e-13
-6.56152e-13
7.62553e-13
1.92369e-11
9.75898e-12
-3.82721e-11
-1.2449e-10
2.30705e-09
-2.53842e-09
-7.76888e-09
3.75174e-08
-7.07573e-08
-1.41229e-07
1.36649e-06
-1.05825e-06
-6.44581e-06
-1.85307e-05
6.64756e-05
0.000280808
-0.000140223
-0.00255438
-0.00516224
7.80514e-10
-7.70529e-06
-2.00856e-05
-3.86177e-06
-8.21008e-32
7.04991e-05
3.362e-06
0.266977
-0.00422544
-0.00414426
-0.000867404
0.000306695
0.000165632
-1.12212e-05
-1.2923e-05
-1.7602e-06
1.47591e-06
2.21054e-07
-2.1447e-08
-1.15066e-07
4.49485e-08
-3.68656e-09
6.15707e-11
-1.14107e-09
2.80439e-10
1.46131e-12
4.71225e-14
2.95772e-34
2.30309e-32
1.14064e-31
-3.99502e-31
3.16517e-22
-5.72803e-30
-1.51796e-29
1.01987e-28
7.11544e-28
-2.78049e-28
-1.4654e-26
-2.31932e-26
1.76464e-25
3.02989e-25
-1.75031e-24
2.08462e-24
-0.00535106
-0.00237961
-3.99029e-05
0.000283082
5.37302e-05
-1.99044e-05
-5.78191e-06
-5.63978e-07
1.26073e-06
-1.47967e-07
-8.93229e-08
4.79511e-08
-8.97679e-09
-2.64487e-09
1.83739e-09
5.40021e-11
-6.81258e-11
-0.000567361
-0.00980062
1.43727e-11
1.0696e-12
-5.05795e-13
-1.33228e-13
2.24448e-14
4.49756e-15
9.72864e-16
-4.25979e-17
7.4369e-17
-1.10988e-17
2.43654e-19
3.59858e-24
-3.80311e-29
4.32564e-25
-5.9077e-34
6.02677e-33
6.25737e-32
7.04846e-32
-2.06377e-30
-1.20046e-29
5.49364e-30
3.39238e-28
8.99254e-28
-4.92286e-27
-2.5355e-26
3.29088e-26
3.56591e-25
-3.95631e-25
-1.89273e-24
1.03992e-23
-1.10822e-16
2.11046e-15
2.51085e-18
-4.76492e-21
-2.05433e-23
-1.86838e-12
9.53362e-20
-9.33214e-15
3.00959e-18
-6.06804e-15
-2.72553e-14
-1.04969e-18
6.7148e-20
-1.2585e-22
8.25878e-22
1.09202e-23
3.494e-13
7.63126e-15
-1.38117e-14
-1.89507e-15
-3.96459e-16
1.2085e-17
-3.98686e-19
2.78269e-23
-8.85364e-24
-8.05931e-25
2.64113e-28
7.92747e-24
2.0906e-19
-5.87822e-11
-2.2925e-05
-2.7067e-12
0.000244632
1.00755
1.00503
1.00848
1.00124
1.00397
0.999701
1.00032
0.999651
0.999415
0.999889
0.999679
1.00001
0.99995
1.00002
1.00003
1.00001
1.00002
1
1
0.999999
0.999998
0.999999
0.999999
1
1
1
1
1
1
1
1
1
1
1
1
1
1
1
1
1
1
1
1
1
1
1
1
1
1
1
1
1
1
1
1
1
1
1
1
1
1
1
1
1
1
1
1
1
1
1
1
1
1
1
1
1
1
1
1
1
1
1
1
1
1
1
1
1
1
1
1
1
1
1
1
1
1
1
1
1
1
1
1
1
1
1
1
1
1
1
1
1
1
1
1
1
1
1
1
1
1
1
1
1
1
1
1
1
1
1
1
1
1
1
1
1
1
1
1
1
1
1
1
1
1
1
1
1
1
1
1
1
1
1
1
1
1
1
1
1
1
1
1
1
1
1
1
1
1
1
1
1
1
1
1
1
1
1
1
-2.26752e-19
-3.92477e-10
4.35902e-32
-2.89679e-13
1.64271e-32
-2.68289e-35
1.22437e-23
-3.1997e-23
-3.18978e-08
-3.62494e-21
-7.63841e-23
-8.57604e-23
5.50653e-20
3.38393e-22
-1.73872e-14
1.37575e-13
2.26176e-13
3.31244e-13
-2.91909e-19
1.41997e-15
3.45746e-18
1.37879e-18
1.54716e-14
9.52052e-14
-1.87942e-14
9.29561e-18
1.01309e-17
1.65064e-18
-6.48407e-16
1.77151e-15
-1.33428e-11
4.97554e-17
1.47606e-18
1.45112e-17
4.17916e-12
-1.76228e-12
3.83408e-20
-6.37057e-20
1.01097e-19
-7.01481e-19
-7.0321e-19
0.0107877
-4.43011e-21
-2.86198e-30
-2.86457e-24
1.63872e-22
-1.16065e-22
4.00893e-13
-0.00578168
1.0303e-23
-8.00313e-25
-1.02441e-24
2.14066e-25
9.61043e-26
-1.04799e-26
-6.51895e-27
-2.49504e-28
2.8384e-28
4.34389e-29
6.69742e-30
4.17021e-32
5.72324e-22
8.07986e-22
-1.82176e-30
-1.56877e-31
2.49083e-32
3.80666e-32
-7.62591e-11
0.568575
0.243387
0.138737
1.22282e-12
-3.54487e-12
2.8032e-28
1.40288e-17
-0.00767335
5.27515e-25
-1.43788e-08
-0.00228146
0.00815149
2.29307e-33
2.18822e-19
1.84763e-33
-3.59666e-29
3.40771e-28
-1.09296e-23
5.82239e-24
1.0331e-21
0.0253249
-5.82857e-20
-6.48638e-20
2.05628e-19
3.57666e-24
-9.1889e-24
-4.9921e-21
-9.41842e-21
6.2861e-19
2.61806e-18
-4.88835e-19
2.53474e-19
2.27844e-17
7.97116e-17
1.13095e-15
4.90969e-15
3.26751e-14
-1.21731e-13
3.76806e-13
6.72351e-33
6.45545e-33
4.08339e-13
1.59292e-12
3.19231e-11
4.18419e-12
-1.90149e-12
-4.33534e-12
-1.43087e-12
2.27418e-13
-1.37815e-11
-6.98433e-12
-1.95561e-10
2.65659e-09
-3.19003e-09
-2.97642e-09
1.82696e-08
-5.16629e-08
-1.55083e-07
1.72405e-06
-1.61347e-06
-8.90615e-06
-2.15186e-05
0.000103243
0.000342177
-0.000349015
-0.00343034
-0.00525201
-0.00611148
5.09085e-09
-8.96843e-08
1
1
1
1
1
1
1
1
1
1
1
1
1
1
1
1
1
1
1
1
1
1
1
1
1
1
1
1
1
1
1
1
1
1
1
1
1
1
1
1
1
1
1
1
1
1
1
1
1
1
1
1
1
1
1
1
1
1
1
1
1
1
1
1
1
1
1
1
1
1
1
1
1
1
1
1
1
1
1
1
1
1
1
1
1
1
1
1
1
1
1
1
1
1
1
1
1
0.999999
1
0.999998
0.999999
0.999996
0.999997
0.999994
0.999994
1
0.999996
1.00002
1.00001
1.00004
1.00003
1.00006
1.00005
1.00005
1.00006
0.999998
1.00003
0.999884
0.99997
0.999671
0.999825
0.999303
0.999566
0.998633
0.999064
0.997481
0.998182
0.995664
0.996697
0.992958
0.994452
0.989083
0.991106
0.98358
0.986567
0.976475
0.980121
0.96764
0.972356
0.956658
0.962142
0.94318
0.949799
0.926655
0.934611
0.906724
0.916418
0.884098
0.894591
0.859128
0.870778
0.829655
0.843305
0.79755
0.811468
0.762832
0.779119
0.725981
0.742443
0.689009
0.70607
0.650833
0.667958
0.61176
0.629516
0.569842
0.5879
0.525631
0.544912
0.480684
0.498532
0.43771
0.455269
0.388848
0.408252
0.334349
0.35311
0.287658
0.304098
0.239176
0.257537
6.07984e-21
5.40138e-21
2.42576e-11
1.84423e-11
-1.11428e-32
1.20368e-09
4.45597e-09
9.37411e-11
-3.5529e-32
-3.99987e-32
4.01043e-33
-4.84662e-17
-2.34085e-17
-4.64892e-33
-1.13867e-32
-8.0562e-35
-3.54549e-10
-2.89979e-10
-7.37075e-35
-1.0197e-34
4.97223e-09
9.73737e-09
3.0697e-11
6.23306e-12
5.16108e-11
0.579475
0.883085
0.663357
-7.3716e-35
-6.11659e-08
3.48419e-28
3.18629e-28
6.84176e-13
-1.31806e-07
-6.98687e-08
2.79359e-23
6.86705e-24
7.69904e-26
1.74974e-26
-4.22429e-06
-1.22636e-18
1.96379e-32
-1.60204e-05
2.0405e-31
4.95036e-20
1.41274e-20
-1.69459e-08
-1.70311e-09
4.51032e-25
2.13351e-25
4.88454e-27
0.0643288
-3.49333e-24
-1.83184e-24
1.8419e-13
1.15885e-23
4.24897e-24
1.03404e-06
-3.88235e-19
-6.47461e-30
-3.3272e-30
-9.34578e-15
2.7538e-11
-3.34e-33
-0.00350615
-7.34092e-22
-3.37177e-21
6.87377e-16
3.91862e-24
5.60574e-25
-2.61188e-24
-1.50364e-25
2.68588e-25
-6.2923e-27
-1.22673e-26
-2.18859e-27
5.72147e-28
1.37804e-28
3.42012e-29
-2.33607e-14
-6.78582e-31
1.13085e-33
-3.43849e-35
0.181706
-3.30766e-23
-1.97261e-30
-5.89002e-13
-7.51406e-13
4.63517e-21
3.78886e-16
-1.09787e-29
-5.10421e-29
2.75865e-07
5.88817e-08
2.94123e-30
3.81645e-30
-8.16581e-30
0.99392
-9.31508e-24
0.0335199
1.22601e-31
-6.91475e-10
3.43404e-26
-5.5441e-14
-7.74376e-25
0.122026
-8.18085e-11
0.129924
1.00399
-1.19744e-17