/*--------------------------------*- C++ -*----------------------------------*\
  =========                 |
  \\      /  F ield         | OpenFOAM: The Open Source CFD Toolbox
   \\    /   O peration     | Website:  https://openfoam.org
    \\  /    A nd           | Version:  7
     \\/     M anipulation  |
\*---------------------------------------------------------------------------*/
FoamFile
{
    version     2.0;
    format      ascii;
    class       volScalarField;
    location    "0.16";
    object      T;
}
// * * * * * * * * * * * * * * * * * * * * * * * * * * * * * * * * * * * * * //

dimensions      [0 0 0 1 0 0 0];

internalField   nonuniform List<scalar> 
46572
(
0
0
0
0
0
0
0
0
0
0
0
0
0
0
0
0
0
0
0
0
0
0
0
0
0
0
0
0
0
0
0
0
0
0
0
0
0
0
0
0
0
0
0
0
0
0
0
0
0
0
0
0
0
0
0
0
0
0
0
0
0
0
0
0
0
0
0
0
0
0
0
0
0
0
0
0
0
0
0
0
0
0
0
0
0
0
0
0
0
0
0
0
0
0
0
0
0
0
0
0
0
0
0
0
0
0
0
0
0
0
0
0
0
0
0
0
0
0
0
0
0
0
0
0
0
0
0
0
0
0
0
0
0
0
0
0
0
0
0
0
0
0
0
0
0
0
0
0
0
0
0
0
0
0
0
0
0
0
0
0
0
0
0
0
0
0
0
0
0
0
0
0
0
0
0
0
0
0
0
0
0
0
0
0
0
0
0
0
0
0
0
0
0
0
0
0
0
0
0
0
0
0
0
0
0
0
0
0
0
0
0
0
0
0
0
0
0
0
0
0
0
0
0
0
0
0
0
0
0
0
0
0
0
0
0
0
0
0
0
0
0
0
0
0
0
0
0
0
0
0
0
0
0
0
0
0
0
0
0
0
0
0
0
0
0
0
0
0
0
0
0
0
0
0
0
0
0
0
0
0
0
0
0
0
0
0
0
0
0
0
0
0
0
0
0
0
0
0
0
0
0
0
0
0
0
0
0
0
0
0
0
0
0
0
0
0
0
0
0
0
0
0
0
0
0
0
0
0
0
0
0
0
0
0
0
0
0
0
0
0
0
0
0
6.43191e-143
8.03988e-143
4.50311e-143
5.62888e-143
6.3949e-142
7.99363e-142
2.43578e-142
3.04473e-142
2.69228e-142
3.36535e-142
7.02455e-142
8.78069e-142
3.12675e-142
3.90844e-142
1.31629e-142
5.12492e-144
2.57647e-139
3.19926e-139
1.63623e-139
2.02657e-139
9.83993e-139
-3.05359e-138
8.91007e-137
1.04288e-136
1.15579e-136
1.39769e-136
1.76974e-136
1.83825e-136
1.47265e-136
4.17341e-137
3.29189e-135
4.03314e-135
3.53649e-135
-2.80907e-135
3.3842e-134
3.73898e-134
2.20455e-134
2.43385e-134
1.53815e-134
1.11678e-134
8.62131e-134
-2.89923e-133
5.34168e-132
5.74098e-132
3.91543e-131
4.63193e-131
3.59479e-130
4.1782e-130
2.37416e-130
2.76581e-130
1.5262e-130
1.76349e-130
5.99929e-130
6.58336e-130
1.12388e-129
1.34593e-129
7.62278e-130
9.12155e-130
5.06534e-130
4.70424e-130
1.00289e-129
1.07582e-129
8.32241e-130
8.3585e-130
5.54887e-130
5.22668e-130
7.52402e-130
-9.11e-130
4.74969e-128
4.83588e-128
1.97981e-126
2.06385e-126
1.31823e-126
1.37502e-126
9.07456e-127
9.56496e-127
6.2354e-127
6.30769e-127
7.76259e-126
8.01074e-126
1.57614e-125
1.84992e-125
1.00907e-125
1.1797e-125
7.08181e-126
5.61116e-126
1.88014e-125
1.90679e-125
2.27758e-125
2.55137e-125
3.24076e-125
3.01013e-125
3.22113e-125
-2.01787e-125
1.00378e-124
8.42742e-125
3.62033e-124
3.36626e-124
2.43952e-124
2.28933e-124
3.67303e-124
4.12568e-124
2.39848e-124
2.69025e-124
1.66164e-124
1.6135e-124
1.07561e-123
1.2664e-123
6.73008e-124
7.86881e-124
5.65981e-124
-2.28375e-125
2.30374e-123
2.08928e-123
2.79439e-123
2.9797e-123
2.45978e-123
2.58498e-123
1.76449e-123
1.26344e-123
2.22422e-123
2.1327e-123
1.79363e-123
3.24864e-124
2.95071e-123
2.46784e-123
3.18212e-123
3.218e-123
2.17414e-123
2.13047e-123
2.08188e-123
2.21484e-123
2.29327e-123
2.57009e-123
8.47041e-123
1.13341e-123
4.10552e-122
4.53047e-122
2.83345e-122
2.57825e-122
1.98681e-122
1.77355e-122
1.8478e-121
1.79315e-121
3.62226e-121
4.18042e-121
2.39449e-121
2.75551e-121
1.60303e-121
1.6523e-121
2.00359e-121
2.17082e-121
2.32511e-121
2.50411e-121
8.74098e-121
8.30771e-121
6.36201e-121
3.86794e-121
4.48691e-121
2.98476e-121
3.24543e-121
1.44955e-121
2.37217e-121
1.23247e-121
5.94273e-121
5.53362e-121
4.01869e-121
3.74971e-121
1.79896e-120
1.83264e-120
3.31439e-120
3.86388e-120
2.12298e-120
2.46628e-120
1.37546e-120
1.39088e-120
1.71928e-120
1.82596e-120
1.65864e-120
1.86919e-120
1.25667e-120
1.38263e-120
8.70134e-121
8.23943e-121
2.2536e-120
2.60946e-120
1.38205e-120
1.5942e-120
1.10696e-120
1.29282e-120
2.07331e-120
2.41171e-120
1.2721e-120
1.47737e-120
8.0551e-121
8.92428e-121
1.83631e-120
2.18947e-120
1.0988e-120
1.30551e-120
6.94199e-121
7.55569e-121
6.75522e-121
7.51888e-121
5.75358e-121
6.62237e-121
3.74425e-121
4.29945e-121
2.51561e-121
2.7517e-121
4.353e-121
5.22415e-121
2.60656e-121
2.88775e-121
2.45597e-121
2.77712e-121
1.68178e-121
1.92552e-121
1.00348e-121
1.13322e-121
6.23957e-122
6.98143e-122
9.10479e-122
1.06336e-121
3.43609e-121
3.70619e-121
2.22324e-121
2.38537e-121
1.41878e-121
1.53137e-121
8.88851e-122
9.58877e-122
2.12003e-121
2.3445e-121
4.02726e-121
4.82479e-121
2.44327e-121
2.91728e-121
1.36935e-121
1.59522e-121
8.6359e-122
1.01128e-121
5.5555e-122
6.54593e-122
1.45573e-117
-5.14302e-120
5.51853e-114
3.00391e-114
5.33411e-111
6.63383e-111
3.43557e-111
4.21926e-111
8.05938e-110
-2.15509e-26
-1.32796e-26
-4.33763e-28
-2.49844e-30
6.04757e-32
-1.83666e-34
-2.12934e-35
-2.93826e-38
4.71931e-39
2.77418e-41
-3.61482e-43
-5.98404e-45
9.88178e-48
2.90675e-49
2.25612e-52
-3.26968e-54
-1.97428e-56
-8.61137e-59
2.76963e-61
7.79938e-63
2.72686e-65
3.66931e-68
2.00319e-70
2.02634e-72
8.79604e-75
9.93634e-78
1.2168e-81
6.06639e-87
1.41634e-95
1.59431e-103
-2.69006e-26
0.155118
0.145209
0.140003
0.121677
0.0825089
0.0321628
-0.00783317
-0.0404352
-0.0543371
-0.0543362
-0.0475751
-0.0390114
-0.0288603
-0.0202724
-0.0134683
-0.00900221
-0.00569811
-0.00346291
-0.00206542
-0.00122596
-0.000716293
-0.000404704
-0.000219433
-0.000121727
-6.49541e-05
-3.40732e-05
-1.76612e-05
-9.22291e-06
-4.66503e-06
-2.35028e-06
-1.15737e-06
-5.81401e-07
-2.85582e-07
-1.36543e-07
-6.50433e-08
-3.11513e-08
-1.48961e-08
-6.93731e-09
-3.16504e-09
-1.46258e-09
-6.59008e-10
-2.94913e-10
-1.32052e-10
-5.72017e-11
-2.55428e-11
-1.11775e-11
-4.83147e-12
-2.08839e-12
-8.92483e-13
-3.73628e-13
-1.56364e-13
-6.58928e-14
-2.76844e-14
-1.1361e-14
-4.58223e-15
-1.8702e-15
-7.46335e-16
-2.95606e-16
-1.17471e-16
-4.5358e-17
-1.79193e-17
-6.93865e-18
-2.65789e-18
-1.01026e-18
-3.84877e-19
-1.46306e-19
-5.453e-20
-1.98779e-20
-7.35951e-21
-2.66259e-21
-9.51908e-22
-3.37433e-22
-1.20534e-22
-4.18848e-23
-1.45281e-23
-4.94268e-24
-1.69857e-24
-5.70157e-25
-1.92947e-25
-5.8143e-26
-3.3086e-26
0.000256837
0.000219275
-0.00600493
0.00358375
0.0399731
0.0885084
0.133221
0.162951
0.173068
0.168239
0.153272
-0.00151534
0.00148755
0.00139081
0.00131983
0.00140869
0.00137599
0.00132688
0.00129861
0.00129257
0.00132689
0.00119413
-0.00169932
0.00301894
0.000303355
0.00109084
0.00216611
-0.00286311
-0.00108106
-0.00601187
-0.00519601
-0.00530495
-0.00840127
0.00124183
-0.00871999
0.0138697
-0.00457937
0.0321973
0.00191344
0.0529363
0.011483
0.076265
0.0208055
0.0991697
0.0312025
0.118415
0.0385065
0.135118
0.0415591
0.146468
0.0425724
0.155786
0.0394953
0.159064
0.0356676
0.161269
0.0263696
0.164575
0.0173429
0.156239
0.0102061
0.139049
0.0034624
0.135471
-0.0131698
0.128686
-0.0233442
0.128549
-0.0330057
0.12583
-0.0372055
0.120114
-0.0417646
0.110854
-0.048399
0.0958091
-0.0559894
0.0772334
-0.06702
0.0538689
-0.0775798
0.0322443
-0.0889
0.011813
-0.0986415
-0.00897605
-0.106463
-0.0248828
-0.112113
-0.0386917
-0.114891
-0.0485589
-0.113862
-0.0514062
-0.109441
-0.0557655
-0.103544
-0.0535192
-0.0950336
-0.0506403
-0.085566
-0.0476435
-0.0765883
-0.0421386
-0.0662814
-0.0378469
-0.0577059
-0.0336809
-0.0498268
-0.0290113
-0.0421479
-0.0246611
-0.0352379
-0.0205257
-0.0290971
-0.0170899
-0.0239287
-0.0140968
-0.0194497
-0.011244
-0.015519
-0.00920046
-0.0124917
-0.00724198
-0.00982492
-0.00569728
-0.00770232
-0.00453207
-0.00607064
-0.0035704
-0.00475125
-0.00273568
-0.00364714
-0.00213847
-0.00282804
-0.00164565
-0.00216836
-0.00126126
-0.001655
-0.000957187
-0.00125355
-0.000724298
-0.000948693
-0.00054997
-0.000715844
-0.00040907
-0.000533364
-0.000310516
-0.000401228
-0.000228084
-0.000295714
-0.000168099
-0.000217683
-0.000125036
-0.000161395
-9.26744e-05
-0.000119208
-6.70707e-05
-8.6483e-05
-4.96665e-05
-6.35783e-05
-3.57326e-05
-4.58086e-05
-2.5661e-05
-3.29589e-05
-1.86816e-05
-2.39018e-05
-1.32222e-05
-1.69443e-05
-9.54825e-06
-1.22222e-05
-6.91359e-06
-8.82903e-06
-4.94418e-06
-6.31134e-06
-3.52749e-06
-4.49636e-06
-2.49066e-06
-3.17947e-06
-1.77235e-06
-2.25901e-06
-1.26119e-06
-1.60341e-06
-8.77823e-07
-1.11848e-06
-6.23421e-07
-7.91512e-07
-4.32193e-07
-5.49594e-07
-2.99989e-07
-3.81493e-07
-2.10495e-07
-2.66909e-07
-1.43768e-07
-1.82732e-07
-1.0027e-07
-1.27322e-07
-7.00736e-08
-8.88744e-08
-4.84927e-08
-6.1466e-08
-3.34705e-08
-4.23928e-08
-2.29908e-08
-2.91152e-08
-1.57595e-08
-1.99761e-08
-1.08523e-08
-1.37336e-08
-7.36677e-09
-9.33064e-09
-5.07632e-09
-6.40946e-09
-3.41662e-09
-4.32218e-09
-2.3062e-09
-2.91671e-09
-1.56888e-09
-1.98257e-09
-1.06723e-09
-1.34714e-09
-7.11618e-10
-8.99631e-10
-4.8316e-10
-6.09525e-10
-3.24781e-10
-4.0959e-10
-2.17893e-10
-2.74735e-10
-1.45567e-10
-1.83621e-10
-9.71541e-11
-1.22565e-10
-6.51572e-11
-8.21151e-11
-4.31423e-11
-5.43881e-11
-2.8898e-11
-3.63619e-11
-1.89302e-11
-2.38529e-11
-1.24279e-11
-1.56615e-11
-8.23071e-12
-1.03643e-11
-5.45339e-12
-6.86258e-12
-3.54732e-12
-4.46815e-12
-2.34643e-12
-2.95185e-12
-1.52188e-12
-1.91621e-12
-9.87755e-13
-1.24393e-12
-6.46921e-13
-8.13715e-13
-4.14623e-13
-5.22064e-13
-2.70498e-13
-3.40478e-13
-1.76818e-13
-2.22463e-13
-1.14643e-13
-1.44212e-13
-7.41264e-14
-9.32202e-14
-4.76497e-14
-5.99368e-14
-3.07406e-14
-3.86707e-14
-1.98795e-14
-2.49887e-14
-1.26191e-14
-1.58759e-14
-8.1496e-15
-1.02379e-14
-5.16081e-15
-6.48915e-15
-3.27653e-15
-4.11969e-15
-2.09581e-15
-2.63404e-15
-1.33326e-15
-1.67536e-15
-8.37681e-16
-1.0531e-15
-5.34351e-16
-6.71264e-16
-3.38033e-16
-4.24617e-16
-2.13421e-16
-2.68025e-16
-1.34314e-16
-1.68703e-16
-8.43622e-17
-1.05964e-16
-5.3204e-17
-6.67943e-17
-3.31353e-17
-4.16087e-17
-2.08843e-17
-2.62075e-17
-1.29263e-17
-1.62279e-17
-8.00037e-18
-1.00435e-17
-4.98316e-18
-6.25362e-18
-3.10766e-18
-3.89898e-18
-1.90709e-18
-2.39355e-18
-1.1868e-18
-1.48881e-18
-7.31638e-19
-9.17775e-19
-4.49967e-19
-5.64373e-19
-2.75989e-19
-3.4614e-19
-1.69068e-19
-2.12076e-19
-1.03895e-19
-1.30278e-19
-6.28206e-20
-7.87846e-20
-3.77844e-20
-4.73836e-20
-2.31754e-20
-2.90571e-20
-1.40902e-20
-1.76648e-20
-8.55657e-21
-1.07259e-20
-5.1969e-21
-6.51308e-21
-3.10625e-21
-3.89369e-21
-1.88096e-21
-2.35677e-21
-1.11958e-21
-1.40291e-21
-6.66424e-22
-8.35175e-22
-3.99115e-22
-5.00042e-22
-2.34768e-22
-2.94159e-22
-1.40011e-22
-1.75412e-22
-8.35885e-23
-1.04705e-22
-4.9543e-23
-6.20561e-23
-2.92652e-23
-3.66529e-23
-1.72484e-23
-2.1602e-23
-1.01211e-23
-1.26751e-23
-5.96301e-24
-7.46609e-24
-3.46148e-24
-4.33423e-24
-2.03561e-24
-2.54827e-24
-1.18503e-24
-1.48348e-24
-6.90495e-25
-8.64275e-25
-3.99969e-25
-5.00529e-25
-2.29003e-25
-2.86549e-25
-1.28399e-25
-1.60685e-25
-7.46132e-26
-9.33688e-26
-4.5228e-26
-2.78647e-26
-5.65334e-26
-1.70399e-47
-7.71767e-46
1.60956e-42
1.73088e-39
1.0719e-37
-4.07215e-36
-7.51247e-34
9.53509e-32
5.34454e-30
-1.27271e-27
-7.61286e-27
-2.95288e-27
-1.44681e-26
0
0
0
0
0
0
0
0
0
0
0
0
0
0
0
0
9.67251e-40
4.93889e-39
6.78798e-37
1.379e-35
2.75503e-34
1.44093e-34
1.6565e-33
1.1278e-33
6.07001e-34
4.95329e-34
2.36066e-34
1.46545e-34
4.8222e-34
4.1855e-34
1.00078e-32
1.04891e-32
6.48873e-33
4.5817e-33
5.78884e-33
6.82595e-33
1.63807e-32
1.05105e-32
1.90486e-32
1.09579e-32
7.75482e-33
6.81e-33
4.97868e-33
2.88774e-33
3.99798e-33
7.11006e-33
1.43146e-32
7.82165e-33
5.23155e-33
3.59939e-33
2.58648e-33
1.96003e-33
1.87252e-33
9.93013e-34
8.93343e-34
4.74506e-34
2.66021e-34
1.63955e-34
8.19414e-35
3.72975e-35
2.18784e-35
9.23519e-36
3.81294e-36
1.72144e-36
7.33342e-37
2.91687e-37
1.04226e-37
4.00387e-38
7.21471e-39
8.33677e-40
-3.38464e-39
-2.0334e-39
-1.27257e-39
-8.29634e-40
-4.14506e-40
-1.84714e-40
-1.1197e-40
-5.11301e-41
-2.20972e-41
-9.74283e-42
-4.29807e-42
-2.32034e-42
-9.74719e-43
-3.6428e-43
-1.53523e-43
-5.48622e-44
-1.61123e-44
-4.66369e-45
-1.44825e-45
-1.49248e-46
1.17285e-46
2.18101e-46
9.57658e-47
4.20976e-47
1.66682e-47
7.02198e-48
3.71798e-48
2.26025e-48
8.3937e-49
-1.28204e-47
1.00687e-109
-1.40778e-28
-5.74534e-29
-6.8136e-27
-2.91889e-27
-8.68542e-28
-7.35975e-30
5.49277e-31
4.53534e-33
-1.51929e-34
-1.81647e-36
2.32233e-38
5.9944e-40
-3.12006e-43
-6.1634e-44
-2.72988e-46
2.50351e-48
1.80286e-50
-2.81859e-53
-2.76827e-55
-1.28503e-57
-3.29675e-60
7.13541e-62
5.67479e-64
1.01172e-66
2.20046e-69
2.20515e-71
1.528e-73
3.71699e-76
1.46594e-79
4.68381e-84
3.7606e-91
1.68863e-99
-0.000625885
1.193e-106
0.15036
0.141201
0.133226
0.104643
0.0601145
0.0130231
-0.0259228
-0.0461391
-0.0532828
-0.0532188
-0.0429024
-0.0327986
-0.0239368
-0.016237
-0.011064
-0.0070858
-0.00436309
-0.00273332
-0.00159762
-0.000940338
-0.000531816
-0.000292108
-0.00016351
-8.74455e-05
-4.63946e-05
-2.49187e-05
-1.26897e-05
-6.45537e-06
-3.27899e-06
-1.62213e-06
-8.19732e-07
-4.04148e-07
-1.94055e-07
-9.54497e-08
-4.50228e-08
-2.15849e-08
-1.00634e-08
-4.61272e-09
-2.16264e-09
-9.67698e-10
-4.3442e-10
-1.95639e-10
-8.62651e-11
-3.82242e-11
-1.69859e-11
-7.25745e-12
-3.19721e-12
-1.35462e-12
-5.68956e-13
-2.44172e-13
-1.01496e-13
-4.28093e-14
-1.75762e-14
-7.11837e-15
-2.94138e-15
-1.16702e-15
-4.64268e-16
-1.85103e-16
-7.25338e-17
-2.8435e-17
-1.12165e-17
-4.24113e-18
-1.6543e-18
-6.22688e-19
-2.37761e-19
-8.86921e-20
-3.25059e-20
-1.20979e-20
-4.38499e-21
-1.57747e-21
-5.72834e-22
-2.01454e-22
-7.03539e-23
-2.45326e-23
-8.36423e-24
-2.89154e-24
-9.75334e-25
-3.2935e-25
-1.16068e-25
0.000353725
0.00231595
-0.00376263
-0.00446296
0.019175
0.0631541
0.110421
0.149669
0.170895
0.176865
0.0122374
0.00132958
0.0014589
0.00140724
0.00140073
0.00133499
0.00130302
0.00133804
0.00132728
0.00158771
-1.24731e-37
-0.000108889
-1.11968e-44
9.28987e-41
1.76188e-38
4.28725e-37
-1.51973e-34
6.25807e-33
9.25232e-31
-5.3536e-29
3.55584e-42
0
0
0
0
0
0
0
0
0
0
0
0
0
0
0
2.42557e-40
1.19489e-39
2.56317e-37
4.43969e-36
4.46984e-35
1.87957e-34
1.73164e-34
1.15457e-33
7.60393e-34
4.2632e-34
3.37233e-34
1.63121e-34
1.60153e-34
3.68551e-34
5.91362e-34
7.98671e-33
7.98961e-33
5.21338e-33
5.27263e-33
8.36751e-33
6.51531e-33
1.18055e-32
8.45938e-33
1.59344e-32
7.96718e-33
5.79631e-33
4.90236e-33
3.61394e-33
2.41166e-33
3.37101e-33
6.36181e-33
1.07016e-32
6.26993e-33
4.28273e-33
3.13269e-33
2.52732e-33
1.52804e-33
1.28448e-33
7.81863e-34
6.84672e-34
3.42733e-34
1.89373e-34
1.1199e-34
5.5898e-35
2.5522e-35
1.43724e-35
5.96096e-36
2.51314e-36
1.17357e-36
4.76658e-37
1.7178e-37
6.49181e-38
2.46821e-38
2.54786e-39
-2.96557e-40
-2.88333e-39
-1.54057e-39
-8.85121e-40
-5.49326e-40
-2.74133e-40
-1.21288e-40
-7.84654e-41
-3.37657e-41
-1.50418e-41
-6.58505e-42
-3.00923e-42
-1.40241e-42
-6.45157e-43
-2.2913e-43
-9.62567e-44
-3.06476e-44
-9.75325e-45
-2.25429e-45
-8.93113e-46
-4.544e-47
1.22778e-46
1.27018e-46
7.03813e-47
2.85594e-47
9.88802e-48
6.14998e-48
2.28708e-48
1.42238e-48
-3.1505e-50
4.8984e-109
0
-3.11188e-34
-4.21649e-36
4.61806e-38
1.32896e-39
1.39141e-43
-1.33625e-43
-6.70936e-46
5.27228e-48
4.22932e-50
-5.88464e-53
-6.20011e-55
-2.90087e-57
-8.8209e-60
1.4629e-61
1.27367e-63
2.27618e-66
4.78232e-69
4.8711e-71
3.40229e-73
8.61435e-76
3.44257e-79
1.03689e-83
8.4963e-91
4.09296e-99
3.91044e-106
-0.0325857
-0.0451106
-0.0613273
-0.0855142
-0.108088
-0.120807
-0.119841
-0.107103
-0.0902253
-0.0687785
-0.0502851
-0.0353598
-0.0235283
-0.0155084
-0.0098171
-0.00599549
-0.00366653
-0.00212969
-0.00124613
-0.000702859
-0.000385219
-0.000213706
-0.000114424
-6.0402e-05
-3.22139e-05
-1.64031e-05
-8.34716e-06
-4.23214e-06
-2.09494e-06
-1.05261e-06
-5.18684e-07
-2.48916e-07
-1.21818e-07
-5.74716e-08
-2.75191e-08
-1.28366e-08
-5.8838e-09
-2.74974e-09
-1.23294e-09
-5.53385e-10
-2.48483e-10
-1.0969e-10
-4.84807e-11
-2.1522e-11
-9.20611e-12
-4.04403e-12
-1.71502e-12
-7.20237e-13
-3.08443e-13
-1.28191e-13
-5.40449e-14
-2.21962e-14
-8.98979e-15
-3.70918e-15
-1.47283e-15
-5.85502e-16
-2.33314e-16
-9.14444e-17
-3.58191e-17
-1.41203e-17
-5.3417e-18
-2.08072e-18
-7.83014e-19
-2.98878e-19
-1.11476e-19
-4.0857e-20
-1.5195e-20
-5.50692e-21
-1.98065e-21
-7.18773e-22
-2.52729e-22
-8.82574e-23
-3.07683e-23
-1.04894e-23
-3.62443e-24
-1.22239e-24
-4.12586e-25
-1.45266e-25
-0.00136914
-0.00781604
-0.00197557
0.017015
0.0362563
0.0474833
0.043576
0.0275404
0.0010624
0.00080527
0.000723369
0.000746186
0.000738404
0.000779674
0.000771119
0.000767393
0.000691948
0.000754985
-0.000605631
2.19084e-37
-1.06026e-35
-1.44388e-33
2.05268e-31
9.96099e-30
0
0
0
0
0
0
0
0
0
0
0
0
0
0
3.03197e-40
-1.58876e-39
1.53483e-37
3.19333e-36
-1.26364e-34
1.55026e-34
-7.38563e-35
8.37969e-34
6.81607e-34
2.89594e-34
2.90915e-34
1.17449e-34
-1.46829e-34
1.49974e-34
-2.81897e-34
2.22467e-33
5.37259e-33
3.60512e-34
-7.06038e-35
3.21537e-33
-2.72179e-33
6.16833e-33
2.47899e-33
1.2596e-32
4.35932e-33
2.00578e-33
3.1758e-33
1.46513e-33
-1.95311e-34
2.04788e-34
-5.89414e-34
3.82287e-33
2.2286e-33
-1.70006e-34
2.11558e-34
7.08089e-34
3.91766e-34
8.17192e-34
2.38614e-34
4.84428e-34
1.84027e-34
1.0192e-34
8.15195e-35
4.5348e-35
1.77465e-35
1.22429e-35
5.11889e-36
2.14193e-36
1.03501e-36
4.2005e-37
1.61116e-37
6.0538e-38
2.59985e-38
2.31142e-39
-4.16615e-40
-2.92515e-39
-1.23797e-39
-7.97694e-40
-5.41308e-40
-2.58648e-40
-1.06674e-40
-8.02864e-41
-3.19332e-41
-1.42133e-41
-6.35828e-42
-2.89647e-42
-1.44623e-42
-6.77578e-43
-2.39084e-43
-1.03678e-43
-3.26331e-44
-1.06095e-44
-2.28936e-45
-1.04029e-45
-4.21881e-47
1.54409e-46
1.50802e-46
8.32694e-47
3.27296e-47
1.11545e-47
7.21321e-48
2.44025e-48
1.63683e-48
-9.76339e-50
1.00965e-38
6.69582e-41
-7.18487e-43
-1.35538e-44
1.71859e-47
6.32783e-49
5.51364e-52
-7.01079e-54
-4.44256e-56
-2.01607e-58
4.73237e-61
1.71868e-62
6.01255e-65
8.1461e-68
4.48535e-70
4.43045e-72
1.981e-74
2.23329e-77
2.64286e-81
1.34441e-86
3.25375e-95
4.14821e-103
-0.0245543
-0.0395081
-0.0523111
-0.0728592
-0.0975476
-0.115482
-0.122736
-0.115426
-0.0992914
-0.0789542
-0.0599554
-0.0426654
-0.0292355
-0.0191291
-0.0124643
-0.0077812
-0.00470025
-0.00278089
-0.00163096
-0.000946364
-0.000529445
-0.000287607
-0.000158453
-8.43323e-05
-4.42328e-05
-2.28469e-05
-1.18722e-05
-5.99841e-06
-3.02032e-06
-1.48829e-06
-7.44852e-07
-3.64853e-07
-1.74498e-07
-8.31573e-08
-3.97687e-08
-1.89738e-08
-8.81848e-09
-4.02902e-09
-1.85906e-09
-8.37201e-10
-3.73913e-10
-1.67442e-10
-7.26415e-11
-3.23772e-11
-1.41565e-11
-6.11892e-12
-2.64227e-12
-1.12776e-12
-4.72201e-13
-1.97685e-13
-8.32332e-14
-3.49379e-14
-1.43259e-14
-5.78163e-15
-2.35804e-15
-9.403e-16
-3.72368e-16
-1.47961e-16
-5.71623e-17
-2.25613e-17
-8.73369e-18
-3.34493e-18
-1.27113e-18
-4.83866e-19
-1.83887e-19
-6.84924e-20
-2.49728e-20
-9.24072e-21
-3.34226e-21
-1.1949e-21
-4.234e-22
-1.51178e-22
-5.25232e-23
-1.82152e-23
-6.19635e-24
-2.12863e-24
-7.14334e-25
-2.41612e-25
0.0015696
-0.00515785
-0.00689601
0.00680018
0.0274518
0.0440402
0.0479509
0.0374285
0.0226398
0.000758204
0.000725047
0.000710126
0.000754546
0.000752941
0.000746562
0.000766905
0.000915669
-2.37379e-44
2.24382e-40
3.82462e-38
8.34246e-37
-3.53888e-34
1.66216e-32
1.917e-30
-1.41153e-28
0
0
0
0
0
0
0
0
0
0
0
0
0
0
-3.62465e-39
-1.86221e-39
-2.11466e-36
-4.16327e-35
2.3279e-34
1.19508e-34
1.21942e-33
1.01835e-33
4.38149e-34
4.51553e-34
1.96577e-34
-7.14919e-35
3.74063e-34
2.04913e-34
2.63675e-33
7.21525e-33
-4.45841e-34
-1.62863e-33
-3.04388e-33
4.08098e-34
1.33718e-32
2.71054e-33
1.45567e-32
7.88464e-33
2.74437e-33
4.90127e-33
2.39866e-33
-6.56823e-36
2.74678e-33
-4.05939e-34
4.92337e-33
2.74643e-33
-8.76995e-34
-6.72071e-34
-3.85307e-34
4.86875e-34
1.39762e-33
1.69542e-34
5.9443e-34
3.25747e-34
1.29738e-34
1.20405e-34
6.43143e-35
2.61546e-35
1.85816e-35
7.83728e-36
3.17206e-36
1.48828e-36
6.16777e-37
2.76039e-37
9.75273e-38
3.99225e-38
6.86347e-39
6.56247e-40
-3.40036e-39
-1.99757e-39
-1.15692e-39
-8.29477e-40
-3.87448e-40
-1.60806e-40
-1.13128e-40
-4.77578e-41
-2.01256e-41
-9.17279e-42
-4.0644e-42
-2.42592e-42
-1.00995e-42
-3.70959e-43
-1.66024e-43
-5.8523e-44
-1.73727e-44
-4.93578e-45
-1.58787e-45
-1.61355e-46
1.44127e-46
2.6266e-46
1.1333e-46
4.79815e-47
1.89246e-47
7.97254e-48
4.19916e-48
2.58513e-48
9.54046e-49
1.16221e-30
-4.73296e-35
-1.16497e-34
1.32116e-31
1.1048e-32
-0.000428414
-0.0161422
0.00162542
0.000766884
-1.42288e-45
4.17008e-39
0
0
0
0
0
0
0
0
0
0
0
0
0
0
0
0
0
0
0
0
0
0
0
0
0
0
0
0
0
0
0
0
0
0
0
0
0
0
0
0
0
0
0
0
0
0
0
0
0
0
0
0
0
0
0
0
0
0
0
0
0
0
0
0
0
0
0
0
0
0
0
0
0
0
0
0
0
0
0
0
0
0
0
0
0
0
0
0
0
0
0
0
0
0
0
0
0
0
0
0
0
0
0
0
0
0
0
0
0
0
0
0
0
0
0
0
0
0
0
0
0
0
0
0
0
0
0
0
0
0
0
0
0
0
0
0
0
0
0
0
0
0
0
0
0
0
0
0
0
0
0
0
0
0
0
0
0
0
0
0
0
0
0
0
0
0
0
0
0
0
0
0
0
0
0
0
0
0
0
0
0
0
0
0
0
0
0
0
0
0
0
0
0
0
0
0
0
-0.000142597
0
0
0
0
0
0
0
0
0
0
0
0
0
0
0
0
0
0
0
0
0
0
0
0
0
0
0
0
0
0
0
0
0
0
0
0
0
0
0
0
0
0
0
0
0
0
0
0
0
0
0
0
0
0
0
0
0
0
0
0
0
0
0
0
0
0
0
0
0
0
0
0
0
0
0
0
0
0
0
0
0
0
0
0
0
0
0
0
0
0
0
0
0
0
0
0
0
0
0
0
0
0
0
0
0
0
0
0
0
0
0
0
0
0
0
0
0
0
0
0
0
0
0
0
0
0
0
0
0
0
0
0
0
0
0
0
0
0
0
0
0
0
1.7541e-140
2.18863e-140
3.31891e-140
4.24212e-140
3.48114e-140
4.33453e-140
1.31535e-140
1.67192e-140
3.57261e-140
4.43438e-140
4.38392e-140
5.4996e-140
1.90658e-140
2.43961e-140
1.98169e-139
2.3745e-139
1.20705e-137
1.48341e-137
1.60547e-137
9.0141e-138
9.4476e-135
1.16242e-134
1.64425e-134
1.99578e-134
1.06702e-134
1.2801e-134
5.86837e-134
5.02225e-134
2.09713e-133
2.54522e-133
1.48713e-133
1.58404e-133
1.05455e-131
1.28511e-131
7.42227e-132
8.72277e-132
4.77954e-132
5.61352e-132
1.13328e-131
-1.58404e-131
3.97441e-130
4.4366e-130
9.01858e-130
1.00483e-129
1.82031e-129
2.05081e-129
2.50546e-128
2.6797e-128
1.61366e-128
1.76425e-128
1.0499e-128
1.10101e-128
6.92669e-128
8.0475e-128
4.8776e-128
5.64798e-128
3.35464e-128
3.92077e-128
1.15785e-127
1.31825e-127
1.31442e-127
1.48902e-127
1.52414e-127
-1.16903e-127
1.31653e-127
-4.37662e-128
1.1416e-126
1.28592e-126
3.4537e-126
-7.88841e-126
2.56141e-124
2.9659e-124
1.68583e-124
1.81808e-124
1.11163e-124
1.16063e-124
7.60838e-125
7.45852e-125
9.17788e-124
1.04603e-123
6.97102e-124
7.95715e-124
4.54417e-124
5.18369e-124
1.82067e-123
2.03334e-123
2.65284e-123
3.03134e-123
1.76607e-123
1.9005e-123
5.5401e-123
3.395e-123
2.97993e-122
3.34094e-122
2.027e-122
2.02295e-122
5.86154e-122
6.99324e-122
3.75973e-122
4.31759e-122
2.43e-122
2.74972e-122
1.60729e-122
1.47161e-122
2.14144e-122
2.26571e-122
4.45487e-122
5.09016e-122
2.97332e-122
3.17293e-122
3.2889e-121
3.64749e-121
3.71953e-121
4.23018e-121
2.40325e-121
2.74137e-121
2.30026e-121
2.03662e-121
4.35391e-121
4.95306e-121
3.12663e-121
2.398e-121
8.70606e-121
1.01213e-120
5.53673e-121
6.25988e-121
3.41971e-121
3.89886e-121
2.74308e-121
3.09117e-121
1.94414e-121
2.13741e-121
1.52561e-121
1.11423e-121
4.16105e-120
4.68878e-120
2.84338e-120
2.57813e-120
4.52356e-120
5.03043e-120
3.03386e-120
3.12683e-120
2.22659e-119
2.47098e-119
1.59986e-119
1.78551e-119
1.06925e-119
1.21539e-119
1.52466e-119
1.72904e-119
1.47921e-119
1.68662e-119
1.82605e-119
-1.67148e-119
1.10569e-118
1.12842e-118
1.7175e-118
2.00741e-118
1.10992e-118
1.28952e-118
1.121e-118
1.32461e-118
7.4102e-119
8.20625e-119
8.72751e-119
1.02705e-118
5.50112e-119
6.38883e-119
1.87435e-118
2.13897e-118
1.3846e-118
1.58861e-118
8.93583e-119
1.03749e-118
1.50557e-118
1.71233e-118
1.56599e-118
1.80907e-118
1.00066e-118
1.16455e-118
9.33405e-119
8.79542e-119
1.27403e-118
1.45293e-118
1.08442e-118
1.06436e-118
6.664e-119
6.77706e-119
4.62824e-119
4.02558e-119
9.99199e-119
1.13866e-118
5.96164e-119
6.79241e-119
5.55121e-119
6.30142e-119
6.12842e-119
7.25488e-119
3.72998e-119
4.43394e-119
5.91965e-119
6.95875e-119
5.20086e-119
6.10686e-119
3.24475e-119
3.85751e-119
2.1103e-119
2.29682e-119
2.26663e-119
2.70157e-119
1.43395e-119
1.63918e-119
2.12226e-119
2.40621e-119
1.78438e-119
2.03514e-119
1.08954e-119
1.26585e-119
7.44078e-120
8.87305e-120
5.23757e-120
6.16189e-120
4.66602e-120
2.63236e-120
3.80818e-119
4.44182e-119
2.56633e-119
2.89422e-119
1.59761e-119
1.80447e-119
9.73406e-120
1.10476e-119
2.04519e-119
2.41041e-119
1.64368e-119
1.95684e-119
1.00184e-119
1.18481e-119
9.98754e-120
1.16225e-119
6.61581e-120
6.50757e-120
1.83447e-120
-1.59503e-120
4.16164e-116
-1.59357e-116
1.38258e-112
7.53925e-113
1.49266e-109
1.83404e-109
1.00846e-109
5.98065e-109
1.25897e-109
-5.70963e-35
-8.93515e-30
-1.05546e-27
-8.30017e-27
-1.63029e-26
-2.03972e-27
1.33847e-32
1.60062e-31
3.28709e-32
5.56084e-38
-0.000326878
1.60264e-39
2.21303e-43
-1.61184e-43
-8.02504e-46
6.29368e-48
5.05162e-50
-7.06428e-53
-7.43726e-55
-3.50003e-57
-1.06725e-59
1.758e-61
1.52065e-63
2.71956e-66
5.78327e-69
5.89604e-71
4.0956e-73
1.03221e-75
4.06338e-79
1.21471e-83
9.74193e-91
4.67758e-99
4.54093e-106
1.95963e-108
-0.0198611
0.000454557
-0.0190073
-0.0206885
-0.0247962
-0.0247761
-0.0193863
-0.0155005
-0.0103539
-0.00663302
-0.00310594
-0.00181261
-0.000981526
-0.000138772
0.000296783
0.000105014
9.08362e-05
6.77859e-05
4.29661e-05
3.41042e-05
7.22841e-06
3.13824e-06
2.67752e-06
-4.48057e-08
-3.63303e-07
-6.77419e-07
-2.08558e-07
-1.97766e-07
-1.67499e-07
-5.85929e-08
-1.43627e-08
-1.59865e-08
-8.12077e-09
-6.32197e-09
-3.05085e-09
-1.22591e-09
-8.2438e-10
-4.41629e-10
-2.60321e-10
-1.18306e-10
-5.7347e-11
-3.06138e-11
-1.44331e-11
-5.62631e-12
-2.86227e-12
-1.22159e-12
-5.67641e-13
-2.68848e-13
-1.12057e-13
-5.4641e-14
-2.33109e-14
-9.25481e-15
-4.35522e-15
-1.88634e-15
-8.52236e-16
-3.52701e-16
-1.42199e-16
-6.27172e-17
-2.56602e-17
-9.62999e-18
-4.09479e-18
-1.56197e-18
-6.14041e-19
-2.46595e-19
-8.75062e-20
-3.52772e-20
-1.40418e-20
-5.15061e-21
-1.98405e-21
-7.37815e-22
-2.85089e-22
-1.0318e-22
-3.69104e-23
-1.38409e-23
-4.73626e-24
-1.59153e-24
-5.63368e-25
-1.94978e-25
-7.51891e-26
-0.00197319
-7.28762e-26
2.64854e-37
-0.000428987
0.000396011
0.00445305
0.00639561
0.00326929
-0.00169756
-0.0081171
-0.0131793
-0.000187353
-0.000297527
-0.000397596
-0.0149853
-0.000451906
-0.000236414
-0.000235424
-1.73284e-45
-0.000433885
-0.000422957
-0.000383993
-0.000389962
-0.000402352
-0.00040198
-0.000483798
7.18431e-05
-0.000315963
9.50068e-05
-1.5165e-37
1.06593e-37
-0.02003
-0.00804057
-3.7489e-34
-1.2615e-34
-0.000707172
-0.00170108
-0.000244078
-0.00148426
-0.000179778
-0.000186359
0.000202698
0.00187613
0.000988262
0.00409512
0.00166964
0.00538737
0.00203607
0.00571826
0.0016476
0.00485888
0.000403483
0.00386158
-0.00134965
0.00194051
-0.00276435
-0.000740275
-0.00421026
-0.00347455
-0.00561512
-0.00616845
-0.00668085
-0.008386
-0.0074882
-0.011142
-0.00789203
-0.012711
-0.00760399
-0.0137219
-0.0087471
-0.0138685
-0.00700961
-0.0173098
-0.0063715
-0.0165664
-0.00706772
-0.0154174
-0.00531424
-0.0151406
-0.00306568
-0.0156812
-0.00328544
-0.0170252
-0.00250604
-0.0178538
-0.00216597
-0.0192101
-0.0010273
-0.0192534
-0.000454205
-0.0175702
0.000504345
-0.0152417
0.00311719
-0.0136987
0.00639777
-0.0120283
0.00659481
-0.0112305
0.00824594
-0.0094457
0.0071532
-0.00643305
0.0073893
-0.00561779
0.00906808
-0.00320275
0.00735637
-0.00137131
0.00789013
-0.000800827
0.00804356
0.000420061
0.00674108
0.000202595
0.00692666
-0.000314118
0.0053682
6.93286e-05
0.00390354
0.000343787
0.00353043
0.000568204
0.00305179
0.000377612
0.00271953
0.000438369
0.00203345
0.000519042
0.00171244
0.000311151
0.00149654
0.000347523
0.00105733
0.000326566
0.000890932
0.000198091
0.00074622
0.000158689
0.000511969
0.000152696
0.000397894
9.66723e-05
0.000329031
8.49577e-05
0.00022785
7.28991e-05
0.000182564
6.28541e-05
0.000142855
4.48517e-05
0.000113591
3.62228e-05
8.14577e-05
3.10708e-05
6.37424e-05
1.80027e-05
5.01749e-05
1.53882e-05
3.21817e-05
1.23338e-05
2.49053e-05
7.27609e-06
1.92863e-05
5.38357e-06
1.23437e-05
4.44742e-06
9.06016e-06
2.48212e-06
6.99623e-06
2.09856e-06
4.38192e-06
1.66216e-06
3.3322e-06
1.082e-06
2.51867e-06
8.75003e-07
1.67081e-06
4.81259e-07
1.30521e-06
2.17871e-07
7.84208e-07
1.76554e-07
4.52126e-07
1.42447e-07
3.40558e-07
1.15595e-07
2.51316e-07
6.31008e-08
1.90883e-07
4.55259e-08
1.15509e-07
3.7457e-08
8.1976e-08
1.66279e-08
6.1593e-08
1.44607e-08
3.45786e-08
1.15353e-08
2.57636e-08
6.70208e-09
1.90246e-08
5.56456e-09
1.18629e-08
2.2919e-09
9.13679e-09
3.09438e-10
4.79048e-09
3.91738e-10
2.26234e-09
4.02686e-10
1.72091e-09
3.83246e-10
1.25867e-09
1.84253e-10
9.48294e-10
1.626e-10
5.67035e-10
1.50812e-10
4.20995e-10
2.15253e-11
3.16996e-10
3.05817e-11
1.40455e-10
2.86965e-11
1.04333e-10
-3.73386e-12
7.94319e-11
-2.86683e-12
3.31312e-11
1.61748e-12
2.19038e-11
-4.42942e-12
1.70556e-11
-1.8732e-12
6.73791e-12
-3.79911e-13
5.51031e-12
3.06901e-13
4.17979e-12
-3.31729e-13
3.24936e-12
-2.60801e-14
1.64721e-12
1.64765e-13
1.25639e-12
-3.53629e-13
9.88893e-13
-1.69282e-13
2.22112e-13
-7.56461e-14
1.86739e-13
-1.64836e-13
1.66533e-13
-1.08055e-13
9.33228e-15
-5.63741e-14
5.16713e-15
-7.23837e-14
1.3677e-14
-4.19468e-14
-2.11125e-14
-2.3237e-14
-9.25133e-15
-1.9557e-14
-3.80554e-15
-1.0712e-14
-5.68068e-15
-1.12384e-14
-2.16121e-15
-1.06001e-14
-5.506e-15
-6.62099e-15
-6.06279e-15
-3.94882e-15
-3.56171e-15
-2.39784e-15
-2.14445e-15
-1.91842e-15
-1.28291e-15
-1.21899e-15
-1.1231e-15
-7.34114e-16
-7.12472e-16
-5.88321e-16
-4.2384e-16
-3.63953e-16
-3.72845e-16
-2.17856e-16
-2.22459e-16
-1.87241e-16
-1.34593e-16
-1.15364e-16
-1.23734e-16
-6.9922e-17
-7.54158e-17
-5.0776e-17
-4.65619e-17
-3.14867e-17
-3.45078e-17
-1.8926e-17
-2.0785e-17
-1.15889e-17
-1.26734e-17
-7.63892e-18
-7.67624e-18
-4.64905e-18
-5.12328e-18
-2.84294e-18
-3.16322e-18
-2.08196e-18
-1.87349e-18
-1.29618e-18
-1.47141e-18
-7.89651e-19
-9.01552e-19
-5.56216e-19
-5.36194e-19
-3.47342e-19
-3.86668e-19
-2.09715e-19
-2.43371e-19
-1.44339e-19
-1.47835e-19
-8.81056e-20
-1.02858e-19
-5.22776e-20
-6.13043e-20
-3.16365e-20
-3.69328e-20
-1.9834e-20
-2.20167e-20
-1.184e-20
-1.38739e-20
-7.28771e-21
-8.60577e-21
-4.2342e-21
-5.02615e-21
-2.76412e-21
-2.92588e-21
-1.72539e-21
-2.00863e-21
-1.19972e-21
-1.23933e-21
-7.37205e-22
-8.6127e-22
-4.37974e-22
-5.28361e-22
-2.90362e-22
-3.12699e-22
-1.74881e-22
-2.11399e-22
-1.01612e-22
-1.23469e-22
-6.34481e-23
-7.3155e-23
-3.70041e-23
-4.48368e-23
-2.39682e-23
-2.63667e-23
-1.58871e-23
-1.76653e-23
-9.47654e-24
-1.15941e-23
-5.46875e-24
-6.69514e-24
-3.21644e-24
-3.93211e-24
-1.99298e-24
-2.31402e-24
-1.16248e-24
-1.4266e-24
-6.73448e-25
-8.29913e-25
-4.30691e-25
-4.82903e-25
-2.55829e-25
-3.14816e-25
-1.4766e-25
-1.81962e-25
-9.34782e-26
-1.05852e-25