/*--------------------------------*- C++ -*----------------------------------*\
  =========                 |
  \\      /  F ield         | OpenFOAM: The Open Source CFD Toolbox
   \\    /   O peration     | Website:  https://openfoam.org
    \\  /    A nd           | Version:  7
     \\/     M anipulation  |
\*---------------------------------------------------------------------------*/
FoamFile
{
    version     2.0;
    format      ascii;
    class       volScalarField;
    location    "0.32";
    object      T;
}
// * * * * * * * * * * * * * * * * * * * * * * * * * * * * * * * * * * * * * //

dimensions      [0 0 0 1 0 0 0];

internalField   nonuniform List<scalar> 
46572
(
0
0
0
0
0
0
0
0
0
0
0
0
0
0
0
0
0
0
0
0
0
0
0
0
0
0
0
0
0
0
0
0
0
0
0
0
0
0
0
0
0
0
0
0
0
0
0
0
0
0
0
0
0
0
0
0
0
0
0
0
0
0
0
0
0
0
0
0
0
0
0
0
0
0
0
0
0
0
0
0
0
0
0
0
0
0
0
0
0
0
0
0
0
0
0
0
0
0
0
0
0
0
0
0
0
0
0
0
0
0
0
0
0
0
0
0
0
0
0
0
0
0
0
0
0
0
0
0
0
0
0
0
0
0
0
0
0
0
0
0
0
0
0
0
0
0
0
0
0
0
0
0
0
0
0
0
0
0
0
0
0
0
0
0
0
0
0
0
0
0
0
0
0
0
0
0
0
0
0
0
0
0
0
0
0
0
0
0
0
0
0
0
0
0
0
0
0
0
0
0
0
0
0
0
0
0
0
0
0
0
0
0
0
0
0
0
0
0
0
0
0
0
0
0
0
0
0
0
0
0
0
0
0
0
0
0
0
0
0
0
0
0
0
0
0
0
0
0
0
0
0
0
0
0
0
0
0
0
0
0
0
0
0
0
0
0
0
0
0
0
0
0
0
0
0
0
0
0
0
0
0
0
0
0
0
0
0
0
0
0
0
0
0
0
0
0
0
0
0
0
0
0
0
0
0
0
0
0
0
1.81439e-142
2.26799e-142
1.55286e-140
1.94108e-140
1.00429e-140
1.25532e-140
1.63203e-140
1.06701e-140
1.00887e-137
1.23121e-137
6.60091e-138
7.59549e-138
4.94956e-138
4.06662e-138
-7.85055e-136
5.23646e-136
2.22246e-133
-1.97915e-133
9.14103e-131
-3.24319e-131
2.0182e-130
-5.5704e-131
1.69102e-128
1.04696e-128
4.37359e-128
4.58016e-128
2.82456e-128
2.84567e-128
5.61199e-128
-1.11266e-127
-2.54698e-128
-3.04939e-127
-2.50228e-127
-1.00799e-126
-7.22333e-126
-8.75782e-126
-4.82985e-126
-5.28192e-126
-7.40813e-125
-9.20092e-125
-4.70402e-125
-5.85573e-125
-3.02633e-125
-3.74702e-125
-4.0505e-125
-5.06903e-125
-2.58933e-125
-3.2743e-125
1.42829e-126
-2.20223e-125
2.23857e-123
2.35453e-123
1.23862e-123
9.94861e-124
1.70652e-122
-5.72984e-122
1.94974e-121
1.06013e-121
2.5948e-121
2.25855e-121
3.37313e-121
9.64731e-122
4.75578e-121
-4.70297e-121
4.71233e-120
5.25047e-120
7.94675e-120
-1.44916e-119
2.28518e-119
1.106e-119
1.63874e-119
8.48202e-120
1.43884e-119
-9.33257e-120
7.34712e-119
-2.43909e-118
1.02556e-117
5.01454e-118
6.58048e-117
6.63185e-117
2.51978e-116
2.35093e-116
1.72962e-116
1.60309e-116
1.19983e-116
1.05868e-116
4.25041e-116
2.98191e-116
7.47269e-116
7.79332e-116
4.89918e-116
5.0122e-116
3.96928e-116
8.70048e-117
7.99661e-116
5.23909e-116
7.30999e-116
3.12953e-116
5.70485e-116
1.67664e-116
9.16098e-116
-1.30517e-115
2.19895e-114
1.68042e-114
3.2075e-113
1.76209e-113
2.32099e-113
1.31469e-113
1.71566e-113
1.01863e-113
1.28975e-113
6.9948e-114
8.62223e-113
5.17363e-113
1.6897e-112
1.69227e-112
1.11315e-112
1.0857e-112
9.84534e-113
-1.10821e-113
2.56473e-112
1.20132e-112
3.18791e-112
2.53559e-112
3.78783e-112
1.80479e-112
4.66159e-112
-5.69122e-112
8.90157e-112
2.44981e-112
2.40761e-111
8.52807e-112
1.80504e-111
7.98963e-112
2.46692e-111
2.14883e-111
1.70999e-111
1.46467e-111
1.29221e-111
7.4147e-112
6.61053e-111
6.65737e-111
4.30343e-111
4.17497e-111
4.43766e-111
-2.85563e-111
1.11612e-110
4.22077e-111
1.3164e-110
9.75746e-111
1.18905e-110
8.30508e-111
9.8079e-111
6.39043e-112
1.1817e-110
5.64478e-111
1.14472e-110
-5.11799e-111
1.46598e-110
5.40126e-111
1.50021e-110
1.02467e-110
1.08643e-110
6.35214e-111
9.67748e-111
7.09595e-111
1.09969e-110
9.25049e-111
3.41428e-110
-3.47456e-110
1.23139e-109
9.87065e-110
9.75136e-110
2.66692e-110
7.68789e-110
2.44339e-110
3.87689e-109
1.82542e-109
7.09706e-109
6.76386e-109
4.72276e-109
4.38814e-109
3.47386e-109
2.02647e-109
4.49809e-109
3.31846e-109
6.15307e-109
3.81386e-109
1.57331e-108
7.08861e-109
1.37754e-108
-2.37809e-109
1.09502e-108
4.08483e-110
9.42374e-109
-2.63294e-109
7.78088e-109
-6.23399e-110
1.5118e-108
5.80293e-109
1.15373e-108
5.25394e-109
3.86323e-108
2.2058e-108
6.6262e-108
6.42157e-108
4.39809e-108
4.16208e-108
3.31112e-108
1.59582e-108
4.43015e-108
2.76406e-108
4.48292e-108
3.72083e-108
3.56164e-108
2.61862e-108
2.83759e-108
1.12655e-108
6.36689e-108
5.99354e-108
4.2691e-108
3.91843e-108
3.57255e-108
3.3335e-108
6.02307e-108
5.63126e-108
4.13092e-108
3.86112e-108
2.9331e-108
2.31291e-108
6.34372e-108
6.59213e-108
4.09828e-108
4.19003e-108
2.85721e-108
2.05204e-108
2.80736e-108
2.14508e-108
2.47762e-108
2.18586e-108
1.78708e-108
1.55319e-108
1.32064e-108
8.9216e-109
2.23892e-108
2.33726e-108
1.5979e-108
1.21982e-108
1.5926e-108
1.32223e-108
1.17691e-108
1.01509e-108
8.05931e-109
6.67554e-109
5.50272e-109
4.34796e-109
7.9832e-109
7.41318e-109
1.93366e-108
1.17249e-108
1.38289e-108
8.19187e-109
9.7968e-109
6.02464e-109
7.07263e-109
4.43889e-109
5.97443e-107
6.60062e-107
8.5871e-104
1.07758e-103
-4.33204e-102
-8.72659e-102
2.54438e-99
-8.78778e-99
3.36906e-99
-6.31453e-99
-1.11789e-97
2.31439e-98
1.0092e-92
-1.79799e-94
1.00036e-89
5.28097e-90
1.72837e-87
2.09857e-87
1.86175e-87
1.32711e-87
3.98707e-85
-3.08305e-17
-1.57082e-17
1.27204e-19
-2.4365e-22
1.86065e-23
-8.01977e-26
1.24769e-27
4.03597e-30
-2.08672e-31
2.06965e-33
-3.61905e-36
-2.41417e-37
1.54329e-39
6.07173e-42
-1.218e-43
5.34571e-46
-5.1042e-49
-8.06649e-51
-4.21706e-54
2.5307e-55
5.29585e-57
-1.30559e-59
-1.8769e-61
6.17638e-65
2.22824e-66
3.29424e-68
2.35521e-70
5.53822e-73
3.43603e-76
5.04095e-80
-3.7304e-17
0.0260067
0.0511155
0.0817487
0.115078
0.148438
0.175519
0.191609
0.201699
0.199118
0.185551
0.159144
0.124375
0.0834843
0.0421511
0.00557755
-0.0286606
-0.0520898
-0.0639396
-0.069263
-0.0686206
-0.0638695
-0.055649
-0.0444301
-0.0361223
-0.0275272
-0.0202656
-0.0146074
-0.0104909
-0.00721233
-0.00487446
-0.00319053
-0.00214176
-0.0013938
-0.000875293
-0.000544143
-0.000339538
-0.000211789
-0.000128117
-7.52135e-05
-4.48904e-05
-2.59913e-05
-1.49715e-05
-8.58304e-06
-4.72301e-06
-2.70954e-06
-1.51839e-06
-8.36313e-07
-4.62963e-07
-2.5298e-07
-1.35086e-07
-7.19926e-08
-3.87913e-08
-2.09259e-08
-1.0999e-08
-5.65905e-09
-2.96724e-09
-1.51799e-09
-7.71587e-10
-3.94808e-10
-1.94894e-10
-9.99574e-11
-5.01696e-11
-2.48457e-11
-1.22705e-11
-6.10591e-12
-3.0442e-12
-1.49023e-12
-7.09319e-13
-3.48017e-13
-1.66528e-13
-7.89095e-14
-3.73233e-14
-1.78904e-14
-8.36655e-15
-3.92319e-15
-1.80864e-15
-8.54391e-16
-3.95029e-16
-1.86785e-16
-7.11385e-17
-4.43979e-17
-5.76671e-06
3.03305e-06
-8.26656e-06
9.39261e-06
2.7351e-05
-0.000112723
-0.000552188
-0.000557676
0.00188226
0.0100271
0.0171884
0.00823917
-6.5701e-07
-1.33541e-05
-1.02173e-05
-1.03347e-05
-1.0071e-05
-9.94415e-06
-1.03979e-05
-1.06154e-05
-1.37859e-05
-8.48125e-07
1.01759e-05
-2.55903e-05
-9.43045e-06
2.26063e-06
-1.12406e-05
-5.82505e-06
2.17951e-06
-1.51785e-05
-5.82811e-06
-2.01631e-05
-1.25545e-05
-1.7964e-05
-1.95099e-05
8.06353e-06
-1.25204e-05
2.24461e-05
-2.4763e-06
1.7819e-05
2.91418e-06
-6.17774e-05
-3.47229e-05
-0.000214101
-0.00014988
-0.000422202
-0.000358833
-0.000598132
-0.000678094
-0.000505754
-0.00104281
7.04101e-05
-0.00133228
0.0015198
-0.00129278
0.00432598
-0.00084496
0.0093046
0.000224756
0.0162851
0.00194835
0.0216986
0.00741718
0.032025
0.0113055
0.0441216
0.0172127
0.0574746
0.0237396
0.0726651
0.0312876
0.0879268
0.0389716
0.103645
0.0458748
0.117786
0.0528124
0.132926
0.0579859
0.145198
0.0632949
0.155548
0.0650542
0.164379
0.065052
0.171855
0.0661509
0.177031
0.0644693
0.181392
0.0625583
0.181587
0.0590145
0.179323
0.0512983
0.174866
0.0451813
0.16719
0.0349587
0.157065
0.0233791
0.145391
0.0118309
0.129841
-0.00124031
0.114306
-0.0151497
0.0953836
-0.0280614
0.0755928
-0.04261
0.0561422
-0.0574384
0.0372958
-0.0709873
0.0181556
-0.0841568
-0.000397746
-0.0947611
-0.0146379
-0.104358
-0.0310146
-0.111634
-0.0414234
-0.116681
-0.0501426
-0.119605
-0.0593472
-0.121483
-0.0653675
-0.121342
-0.0669256
-0.118607
-0.0697774
-0.115223
-0.0698175
-0.11024
-0.0685197
-0.104289
-0.0654885
-0.0972083
-0.0620332
-0.0904479
-0.0585686
-0.0829145
-0.0532988
-0.0750621
-0.0501181
-0.0680635
-0.0444338
-0.060461
-0.0395189
-0.0532994
-0.0355831
-0.0472541
-0.0316172
-0.041482
-0.0271915
-0.0357583
-0.0241416
-0.031039
-0.0204979
-0.0263791
-0.0173026
-0.0223208
-0.0148934
-0.0189777
-0.0123227
-0.0157481
-0.0104276
-0.013275
-0.00885604
-0.0111948
-0.00737314
-0.00930424
-0.00611987
-0.00768892
-0.00498886
-0.00629253
-0.0041241
-0.00517688
-0.00339802
-0.00423861
-0.00272127
-0.00341246
-0.00223857
-0.00278051
-0.00177949
-0.00221887
-0.00141738
-0.00176758
-0.0011472
-0.0014191
-0.00089319
-0.00111266
-0.000714825
-0.000888238
-0.000573302
-0.000710721
-0.000453365
-0.000561454
-0.000357513
-0.000441969
-0.00027944
-0.000345643
-0.000218573
-0.000270911
-0.000171374
-0.000211757
-0.00013211
-0.00016367
-0.000104146
-0.000127948
-7.93426e-05
-9.79922e-05
-6.08047e-05
-7.50883e-05
-4.71422e-05
-5.81033e-05
-3.64194e-05
-4.47939e-05
-2.74696e-05
-3.39374e-05
-2.12102e-05
-2.60721e-05
-1.61543e-05
-1.98515e-05
-1.22803e-05
-1.50871e-05
-9.26517e-06
-1.14054e-05
-7.01559e-06
-8.64043e-06
-5.32503e-06
-6.54541e-06
-3.98563e-06
-4.90579e-06
-3.03455e-06
-3.71494e-06
-2.23953e-06
-2.75387e-06
-1.66159e-06
-2.0449e-06
-1.24956e-06
-1.53492e-06
-9.36708e-07
-1.1492e-06
-6.87164e-07
-8.4583e-07
-5.15564e-07
-6.32446e-07
-3.76873e-07
-4.63665e-07
-2.76103e-07
-3.4003e-07
-2.05271e-07
-2.51819e-07
-1.47968e-07
-1.82324e-07
-1.09365e-07
-1.34654e-07
-8.10592e-08
-9.97596e-08
-5.9436e-08
-7.31466e-08
-4.35051e-08
-5.3508e-08
-3.15623e-08
-3.88793e-08
-2.30763e-08
-2.84429e-08
-1.69028e-08
-2.07904e-08
-1.20997e-08
-1.49388e-08
-8.88613e-09
-1.09172e-08
-6.34772e-09
-7.82575e-09
-4.55703e-09
-5.62054e-09
-3.31525e-09
-4.08525e-09
-2.38792e-09
-2.9428e-09
-1.69653e-09
-2.09521e-09
-1.2299e-09
-1.51569e-09
-8.82282e-10
-1.08755e-09
-6.32693e-10
-7.79491e-10
-4.51002e-10
-5.5635e-10
-3.22131e-10
-3.97636e-10
-2.30869e-10
-2.84599e-10
-1.6323e-10
-2.015e-10
-1.1733e-10
-1.44493e-10
-8.23616e-11
-1.01654e-10
-5.80279e-11
-7.16526e-11
-4.13295e-11
-5.09835e-11
-2.93986e-11
-3.62433e-11
-2.0518e-11
-2.53549e-11
-1.45938e-11
-1.80051e-11
-1.02674e-11
-1.26713e-11
-7.22019e-12
-8.90918e-12
-5.05746e-12
-6.24335e-12
-3.54504e-12
-4.38232e-12
-2.49307e-12
-3.07811e-12
-1.72534e-12
-2.13213e-12
-1.1902e-12
-1.4712e-12
-8.38075e-13
-1.03542e-12
-5.86188e-13
-7.24316e-13
-4.10368e-13
-5.07128e-13
-2.87109e-13
-3.54562e-13
-1.97021e-13
-2.43808e-13
-1.38007e-13
-1.70391e-13
-9.45876e-14
-1.16915e-13
-6.48431e-14
-8.02681e-14
-4.50394e-14
-5.56706e-14
-3.05253e-14
-3.77867e-14
-2.11352e-14
-2.6162e-14
-1.4686e-14
-1.81733e-14
-1.01141e-14
-1.25212e-14
-6.95797e-15
-8.61245e-15
-4.77095e-15
-5.90927e-15
-3.27102e-15
-4.05401e-15
-2.25225e-15
-2.78736e-15
-1.52414e-15
-1.88939e-15
-1.05264e-15
-1.30306e-15
-7.17141e-16
-8.88534e-16
-4.90739e-16
-6.07496e-16
-3.36701e-16
-4.15943e-16
-2.26935e-16
-2.80002e-16
-1.49063e-16
-1.84603e-16
-1.02472e-16
-1.2738e-16
-7.54806e-17
-4.97575e-17
-9.16181e-17
1.48696e-38
-5.08409e-37
7.09545e-34
-1.28235e-31
-7.44951e-29
1.46206e-26
-5.41043e-25
5.24343e-23
-6.27062e-21
4.64343e-19
-4.29193e-18
1.05702e-18
-1.12098e-17
0
0
0
0
0
0
0
0
0
0
0
1.47259e-36
2.01422e-34
3.09779e-32
-4.65383e-31
-1.87864e-29
5.76099e-29
1.09343e-28
-2.52537e-28
2.98196e-28
1.94654e-27
2.95396e-27
1.34097e-28
-6.81071e-28
-4.76803e-28
-2.18656e-27
-1.70014e-27
-1.68665e-27
-2.50056e-27
-1.89093e-27
-1.28442e-27
-7.00901e-28
-1.77041e-28
1.55977e-28
2.89376e-28
2.62607e-28
1.24793e-28
4.67305e-29
-7.2219e-29
-7.35544e-29
-9.18226e-29
-9.41476e-29
-8.87205e-29
-8.02805e-29
-6.44144e-29
-3.70842e-29
-1.55977e-30
1.1703e-29
2.50492e-29
3.09669e-29
2.65896e-29
1.85871e-29
8.06579e-30
4.78731e-30
-6.69441e-31
-9.74611e-31
-1.46442e-30
-1.4406e-30
-1.00835e-30
-6.2166e-31
-3.98387e-31
-2.20991e-31
-1.25777e-31
-6.94235e-32
-3.94386e-32
-1.31377e-32
-6.30918e-33
-3.19505e-33
8.83776e-34
6.6942e-34
1.25362e-33
7.85501e-34
5.68562e-34
3.87982e-34
2.40285e-34
1.45015e-34
8.31874e-35
4.50105e-35
2.58227e-35
1.33982e-35
6.26854e-36
1.36182e-36
4.88588e-37
4.06963e-38
-2.07535e-37
-1.60928e-37
-1.45933e-37
-7.91086e-38
-4.10191e-38
-3.02162e-38
-1.64293e-38
-9.75456e-39
-4.88509e-39
-2.43815e-39
-1.20356e-39
-5.78263e-40
-2.81909e-40
-9.07607e-41
-3.1144e-41
7.62473e-40
4.97767e-85
1.10797e-20
3.71857e-21
-2.72752e-18
-9.14905e-19
2.40093e-19
-2.83619e-22
-6.0233e-23
-2.97229e-25
-1.57033e-26
1.31221e-28
-7.72157e-31
-5.60772e-33
2.92687e-34
-2.1361e-36
-1.49283e-39
1.29263e-40
-5.82385e-43
-4.01356e-45
4.10176e-47
-1.55414e-49
-2.83898e-52
4.76315e-55
5.09948e-56
2.19835e-58
-2.80106e-60
-6.1527e-63
2.03877e-65
2.754e-67
3.0374e-69
1.3678e-71
1.60592e-74
5.16174e-78
3.47736e-07
2.62127e-82
0.037213
0.0665923
0.0984021
0.132367
0.160909
0.183701
0.197624
0.200601
0.192394
0.173615
0.142963
0.105261
0.0638191
0.0248523
-0.0127072
-0.0394868
-0.0567391
-0.0702872
-0.070081
-0.0667485
-0.0586233
-0.0485587
-0.0401481
-0.0308116
-0.0232123
-0.0175764
-0.0122526
-0.00850465
-0.00586359
-0.00387618
-0.00262064
-0.00170724
-0.00108032
-0.000702443
-0.000430402
-0.00026881
-0.000162336
-9.61556e-05
-5.84782e-05
-3.34979e-05
-1.92882e-05
-1.12062e-05
-6.31255e-06
-3.58564e-06
-2.04088e-06
-1.11016e-06
-6.28652e-07
-3.38483e-07
-1.81255e-07
-1.00012e-07
-5.28904e-08
-2.85422e-08
-1.49813e-08
-7.7438e-09
-4.11919e-09
-2.08396e-09
-1.06436e-09
-5.46595e-10
-2.75336e-10
-1.3934e-10
-7.12736e-11
-3.47671e-11
-1.76977e-11
-8.65051e-12
-4.3156e-12
-2.10744e-12
-1.01055e-12
-4.96253e-13
-2.37621e-13
-1.13065e-13
-5.49739e-14
-2.57322e-14
-1.20624e-14
-5.67335e-15
-2.62024e-15
-1.24022e-15
-5.72979e-16
-2.6935e-16
-1.33851e-16
-3.54875e-06
4.63793e-06
-7.63731e-06
-7.21758e-06
1.65049e-05
-1.49147e-05
-0.00032778
-0.000725336
0.000193511
0.00497429
0.00387991
-9.50723e-06
-1.06281e-05
-9.72035e-06
-9.98622e-06
-1.01321e-05
-1.00674e-05
-1.00899e-05
-7.70818e-06
-1.47347e-05
1.32292e-29
6.29131e-06
-3.86627e-35
3.16606e-32
-4.34942e-30
-3.68094e-28
-1.00925e-26
1.35687e-24
4.32412e-22
-4.63673e-20
1.49548e-33
0
0
0
0
0
0
0
0
0
0
0
9.41137e-37
4.52303e-34
-5.23763e-32
-1.16581e-30
1.03499e-29
1.07492e-28
1.62577e-28
6.40992e-29
1.25671e-27
1.9862e-27
3.37616e-27
2.99746e-28
2.11338e-28
-5.34276e-28
-1.83628e-27
-1.32997e-27
-2.03171e-27
-2.16172e-27
-1.52557e-27
-1.01924e-27
-4.1074e-28
1.65184e-29
3.12272e-28
2.84749e-28
2.1869e-28
9.67192e-29
1.40538e-29
-7.86479e-29
-8.00042e-29
-9.26898e-29
-9.28108e-29
-8.24764e-29
-7.32146e-29
-5.70908e-29
-2.5127e-29
7.3699e-30
1.74339e-29
2.94964e-29
2.84403e-29
2.15343e-29
1.52969e-29
6.95832e-30
3.0458e-30
-1.22768e-30
-1.18241e-30
-1.40592e-30
-1.2143e-30
-7.58758e-31
-5.09722e-31
-2.92151e-31
-1.65125e-31
-9.24543e-32
-4.93684e-32
-2.98619e-32
-9.64237e-33
-4.42405e-33
-2.18784e-33
9.0134e-34
5.2804e-34
1.09651e-33
6.61898e-34
4.3758e-34
2.9915e-34
1.81808e-34
1.1205e-34
5.99192e-35
3.43851e-35
1.83217e-35
8.59772e-36
4.58157e-36
9.56889e-37
6.5505e-38
9.7081e-39
-1.5524e-37
-1.2432e-37
-1.02677e-37
-5.59495e-38
-3.02439e-38
-2.11715e-38
-1.16751e-38
-6.94703e-39
-3.45949e-39
-1.73966e-39
-8.34245e-40
-4.05103e-40
-1.95276e-40
-6.28672e-41
3.61481e-40
1.99038e-84
0
-3.80789e-26
2.73685e-28
-1.20168e-30
-1.82273e-32
6.57885e-34
-4.00847e-36
-7.97034e-39
2.72841e-40
-9.39963e-43
-9.61404e-45
8.73962e-47
-3.07947e-49
-6.64335e-52
1.50107e-55
1.02068e-55
5.00313e-58
-5.64331e-60
-1.32847e-62
3.81086e-65
5.52331e-67
6.42473e-69
2.8049e-71
3.37533e-74
1.13987e-77
7.30848e-82
0.0288818
0.0442997
0.0604665
0.0717658
0.0767001
0.0740869
0.0646825
0.0482926
0.0289063
-0.0014781
-0.0322508
-0.063161
-0.0907564
-0.11149
-0.124589
-0.128426
-0.125779
-0.114392
-0.102145
-0.086143
-0.0692966
-0.0551971
-0.042023
-0.0310342
-0.0229425
-0.0159581
-0.0110514
-0.00756734
-0.00500041
-0.00333506
-0.00217204
-0.0013728
-0.000882031
-0.000541071
-0.000337473
-0.000204275
-0.000121069
-7.3159e-05
-4.21483e-05
-2.42846e-05
-1.40174e-05
-7.92376e-06
-4.47386e-06
-2.54321e-06
-1.38936e-06
-7.81568e-07
-4.22507e-07
-2.26457e-07
-1.24326e-07
-6.57845e-08
-3.55221e-08
-1.86906e-08
-9.67484e-09
-5.13019e-09
-2.60537e-09
-1.32879e-09
-6.82181e-10
-3.44285e-10
-1.73875e-10
-8.88508e-11
-4.34953e-11
-2.20433e-11
-1.07758e-11
-5.37975e-12
-2.62998e-12
-1.26364e-12
-6.1907e-13
-2.96801e-13
-1.41311e-13
-6.85434e-14
-3.2097e-14
-1.50789e-14
-7.0959e-15
-3.28221e-15
-1.55051e-15
-7.17582e-16
-3.36738e-16
-1.65535e-16
3.57154e-06
-2.82963e-06
1.56565e-05
4.01415e-05
-0.000158799
-0.000758565
-0.00130734
-0.000301501
-5.69262e-06
-1.83555e-06
-9.91156e-07
-1.14073e-06
-1.52681e-06
-1.91773e-06
-1.79993e-06
-2.3246e-06
-3.47365e-06
1.15711e-06
6.11437e-06
-1.48639e-28
3.36865e-26
-1.14273e-24
1.16723e-22
-1.36089e-20
0
0
0
0
0
0
0
0
0
0
1.17444e-36
-3.53009e-35
-6.5834e-32
1.20461e-30
-1.50255e-28
-2.19277e-28
7.52053e-29
-9.39365e-28
-2.13938e-27
-3.04356e-27
-2.34035e-27
-3.33465e-28
-2.80516e-27
5.8974e-28
-5.61644e-28
3.29544e-28
1.81413e-27
4.7214e-30
9.92977e-29
-1.14942e-28
-4.01702e-28
-5.306e-28
-5.01074e-28
-2.75744e-28
-9.48829e-29
-4.05399e-29
3.68893e-29
1.34916e-29
5.09892e-29
5.55059e-29
3.80584e-29
6.19907e-29
3.44311e-29
4.26376e-30
-2.18828e-29
-2.91834e-29
-3.96189e-29
-3.21539e-29
-1.97945e-29
-9.0231e-30
-1.54245e-31
-4.29267e-30
1.94571e-30
-1.36589e-30
4.87912e-31
1.56151e-31
-3.46806e-31
-2.76347e-31
-7.15314e-32
-5.9764e-32
-2.64217e-32
-8.93425e-33
3.50364e-33
-8.41709e-33
2.99965e-33
2.84388e-33
-3.79751e-34
2.16205e-33
9.84376e-34
8.99036e-34
2.15321e-34
1.8159e-34
1.31508e-34
5.23045e-35
3.04792e-35
1.50335e-35
8.42516e-36
4.86344e-36
1.64396e-36
1.88748e-36
-7.4043e-37
-6.97279e-37
-1.70616e-37
-2.82918e-37
-1.50981e-37
-1.13014e-37
-6.07072e-38
-2.45267e-38
-1.99143e-38
-9.6739e-39
-5.14601e-39
-2.67435e-39
-1.25461e-39
-6.24172e-40
-3.11464e-40
-1.25976e-40
-3.94167e-41
-5.10104e-40
-4.54788e-31
3.81443e-33
-3.39677e-37
-5.37614e-37
2.81522e-39
1.52136e-41
-2.48939e-43
1.00885e-45
-7.30563e-49
-1.71271e-50
-1.43677e-53
4.46673e-55
1.09127e-56
-2.28235e-59
-4.04849e-61
8.59818e-65
4.26165e-66
6.55757e-68
4.6896e-70
1.14892e-72
7.29559e-76
1.19987e-79
0.021202
0.036931
0.0524067
0.0676761
0.0763238
0.075674
0.0716172
0.0588547
0.0392545
0.0137487
-0.0153518
-0.0469165
-0.0767805
-0.101092
-0.11907
-0.127871
-0.127523
-0.12033
-0.108615
-0.095049
-0.0784727
-0.0619502
-0.0488006
-0.0366239
-0.0267951
-0.0190618
-0.0134904
-0.00922643
-0.00622291
-0.0040778
-0.00271231
-0.00175304
-0.00110232
-0.000686579
-0.000427424
-0.000265373
-0.000159729
-9.4251e-05
-5.60881e-05
-3.24504e-05
-1.86047e-05
-1.06886e-05
-5.91013e-06
-3.3794e-06
-1.89065e-06
-1.04307e-06
-5.76339e-07
-3.1406e-07
-1.68038e-07
-8.97921e-08
-4.83233e-08
-2.60283e-08
-1.36555e-08
-7.05305e-09
-3.69301e-09
-1.88627e-09
-9.59385e-10
-4.91469e-10
-2.43439e-10
-1.24611e-10
-6.25338e-11
-3.10057e-11
-1.53212e-11
-7.6087e-12
-3.79501e-12
-1.85397e-12
-8.85013e-13
-4.33628e-13
-2.07522e-13
-9.85604e-14
-4.65739e-14
-2.23011e-14
-1.04346e-14
-4.89587e-15
-2.26036e-15
-1.06694e-15
-4.93747e-16
-2.32919e-16
6.5152e-06
-3.7607e-06
6.11677e-06
2.6285e-05
-7.8331e-06
-0.000406892
-0.00110878
-0.00107137
0.00133105
-1.10725e-06
-1.40191e-06
-1.40402e-06
-1.59701e-06
-1.58508e-06
-1.49299e-06
1.04307e-06
-6.79222e-06
-5.50482e-35
6.45151e-32
-1.04773e-29
-6.03311e-28
-5.94462e-26
5.33594e-24
6.92492e-22
-9.08816e-20
0
0
0
0
0
0
0
0
0
1.84073e-36
2.5194e-34
2.30059e-32
1.56837e-30
-4.9841e-30
-1.80909e-28
-1.14199e-28
8.11724e-28
-9.11946e-28
-3.40927e-27
-5.91654e-27
1.33742e-27
-3.53557e-27
3.18359e-28
-1.92553e-27
-2.36607e-28
2.23642e-27
-1.42592e-28
-4.07084e-29
3.29771e-28
-2.42461e-28
-4.71467e-28
-5.73162e-28
-2.56292e-28
-1.73663e-28
-1.67511e-28
1.54769e-29
-1.47128e-29
5.10596e-29
5.62306e-29
2.42719e-29
4.54388e-29
4.97158e-29
3.12429e-29
-5.36755e-30
-2.63128e-29
-2.82584e-29
-3.50262e-29
-2.18556e-29
-1.08208e-29
-2.68468e-30
-4.50888e-30
2.72648e-30
-9.32869e-31
-6.7936e-31
5.83908e-31
-4.57622e-31
-3.50409e-31
-7.00628e-32
-9.2651e-32
-4.45824e-32
-1.73884e-32
-3.94978e-33
-7.17256e-33
2.94274e-33
3.19775e-33
3.18496e-34
2.76579e-33
1.52531e-33
1.06772e-33
5.3752e-34
2.72851e-34
2.12459e-34
8.34472e-35
3.30629e-35
3.04303e-35
1.01413e-35
7.75356e-36
3.85241e-36
2.12329e-36
-8.57216e-37
-4.6788e-37
-2.29407e-37
-3.86794e-37
-1.95558e-37
-1.67654e-37
-8.58963e-38
-3.66307e-38
-2.92544e-38
-1.40075e-38
-7.1251e-39
-3.68529e-39
-1.67135e-39
-8.8391e-40
-4.24914e-40
-1.93643e-40
-4.22191e-41
-3.40441e-41
-1.65183e-22
2.30263e-27
-1.39527e-25
3.86662e-23
-1.74237e-25
2.76389e-06
0.0137738
-3.06421e-08
-4.01179e-06
-7.69631e-37
-4.59019e-31
0
0
0
0
0
0
0
0
0
0
0
0
0
0
0
0
0
0
0
0
0
0
0
0
0
0
0
0
0
0
0
0
0
0
0
0
0
0
0
0
0
0
0
0
0
0
0
0
0
0
0
0
0
0
0
0
0
0
0
0
0
0
0
0
0
0
0
0
0
0
0
0
0
0
0
0
0
0
0
0
0
0
0
0
0
0
0
0
0
0
0
0
0
0
0
0
0
0
0
0
0
0
0
0
0
0
0
0
0
0
0
0
0
0
0
0
0
0
0
0
0
0
0
0
0
0
0
0
0
0
0
0
0
0
0
0
0
0
0
0
0
0
0
0
0
0
0
0
0
0
0
0
0
0
0
0
0
0
0
0
0
0
0
0
0
0
0
0
0
0
0
0
0
0
0
0
0
0
0
0
0
0
0
0
0
0
0
0
0
0
0
0
0
0
0
0
0
1.91462e-06
0
0
0
0
0
0
0
0
0
0
0
0
0
0
0
0
0
0
0
0
0
0
0
0
0
0
0
0
0
0
0
0
0
0
0
0
0
0
0
0
0
0
0
0
0
0
0
0
0
0
0
0
0
0
0
0
0
0
0
0
0
0
0
0
0
0
0
0
0
0
0
0
0
0
0
0
0
0
0
0
0
0
0
0
0
0
0
0
0
0
0
0
0
0
0
0
0
0
0
0
0
0
0
0
0
0
1.87236e-141
2.39728e-141
9.98537e-141
1.24374e-140
1.67325e-138
2.10395e-138
1.05901e-138
1.34189e-138
1.41495e-138
3.94604e-139
7.74147e-136
9.66714e-136
1.57851e-135
-4.68563e-135
2.52729e-135
-5.04123e-135
-7.09202e-133
-8.52525e-136
2.04887e-131
-2.79929e-130
3.37266e-128
-4.35786e-128
5.27216e-128
-3.06543e-128
2.1916e-126
2.00459e-126
2.10661e-126
1.43251e-126
1.92748e-126
4.4348e-127
-4.59824e-126
-2.5411e-125
-1.65287e-125
-4.42628e-125
-8.19875e-125
2.29558e-124
-1.91188e-123
-2.21447e-123
-3.30768e-123
-4.15628e-123
-4.01701e-123
-4.96046e-123
-2.5264e-123
-3.22644e-123
-3.97693e-123
-4.80776e-123
-2.51449e-123
-3.15523e-123
-1.56315e-123
-2.05259e-123
-3.42423e-123
-5.57038e-123
1.03537e-121
8.51349e-122
2.42127e-121
-1.28268e-121
1.66482e-119
1.46359e-119
3.07026e-119
2.90539e-119
2.25937e-119
1.30983e-119
7.43322e-119
-3.36184e-119
2.2993e-118
1.96286e-118
1.97692e-118
1.01722e-118
4.90301e-117
4.45898e-117
3.66325e-117
2.84221e-117
2.48792e-117
1.8975e-117
6.30383e-117
-1.61922e-116
6.46372e-116
3.95035e-116
1.4489e-115
8.82789e-116
2.95274e-115
2.41482e-115
1.52271e-114
9.07688e-115
1.06383e-114
5.64856e-115
8.1782e-115
3.65917e-115
4.38926e-114
4.06375e-114
3.11634e-114
2.7372e-114
2.19297e-114
1.84609e-114
7.71386e-114
6.17584e-114
9.38829e-114
7.75594e-114
1.15409e-113
-1.00562e-113
1.09024e-113
-6.61191e-114
4.09118e-113
3.56675e-113
1.59288e-112
-3.93309e-112
3.70471e-111
3.34785e-111
2.60422e-111
1.68514e-111
1.87598e-111
1.01198e-111
1.43853e-111
6.18672e-112
8.90822e-111
8.10359e-111
7.16004e-111
6.1876e-111
5.14977e-111
3.96716e-111
2.06292e-110
1.51339e-110
3.1812e-110
2.7402e-110
2.33272e-110
1.38145e-110
4.58578e-110
-5.5194e-111
1.65524e-109
1.37726e-109
1.2595e-109
7.34492e-110
3.15855e-109
3.38982e-109
2.10576e-109
1.94145e-109
1.41819e-109
1.22661e-109
1.02315e-109
5.23294e-110
1.19991e-109
8.93135e-110
2.62093e-109
2.31121e-109
1.95779e-109
1.30328e-109
1.17368e-108
9.38106e-109
1.40668e-108
1.25606e-108
9.73187e-109
8.27633e-109
9.58293e-109
3.61708e-109
1.63891e-108
1.46888e-108
1.33242e-108
3.74364e-109
2.69596e-108
2.60644e-108
1.82579e-108
1.67565e-108
1.22111e-108
1.08569e-108
1.03254e-108
7.80024e-109
7.255e-109
4.56849e-109
7.51883e-109
-2.6009e-109
9.98706e-108
8.44977e-108
7.73873e-108
2.24164e-108
1.27474e-107
9.1486e-108
9.47695e-108
5.03311e-108
3.93006e-107
3.31034e-107
2.93183e-107
2.45451e-107
2.03499e-107
1.7137e-107
3.02935e-107
2.51558e-107
3.10579e-107
2.77769e-107
5.12281e-107
-7.32783e-107
1.6045e-106
1.00627e-106
2.45452e-106
2.36313e-106
1.6755e-106
1.5244e-106
1.84251e-106
1.79534e-106
1.31621e-106
9.96107e-107
1.72996e-106
1.64199e-106
1.18003e-106
1.00087e-106
3.42576e-106
3.11096e-106
2.59998e-106
2.28702e-106
1.80729e-106
1.54425e-106
3.31177e-106
2.70548e-106
3.72557e-106
3.40229e-106
2.55067e-106
2.23415e-106
2.46333e-106
9.55103e-107
3.11072e-106
2.56571e-106
2.78739e-106
1.46028e-106
1.94187e-106
1.10191e-106
1.5217e-106
4.9857e-107
2.61965e-106
2.26507e-106
1.78165e-106
1.44961e-106
1.76412e-106
1.5506e-106
1.9992e-106
2.0281e-106
1.32491e-106
1.30339e-106
2.05212e-106
1.91585e-106
1.88193e-106
1.80946e-106
1.25597e-106
1.19717e-106
9.38477e-107
6.17976e-107
1.01154e-106
9.17193e-107
7.03325e-107
5.68224e-107
1.07831e-106
8.28376e-107
9.619e-107
8.18026e-107
6.49745e-107
5.73962e-107
4.90594e-107
4.5779e-107
3.63019e-107
3.30782e-107
3.73368e-107
-1.16319e-107
1.70527e-106
1.49171e-106
1.23581e-106
9.06199e-107
8.53538e-107
6.25242e-107
5.97061e-107
4.32878e-107
6.85596e-105
8.02803e-105
5.53148e-102
7.04802e-102
2.22297e-98
-2.83392e-99
9.29683e-96
8.13725e-96
1.26375e-95
-1.49759e-95
-7.50233e-95
-2.04357e-94
2.86868e-91
-1.00348e-91
2.50437e-88
1.33499e-88
4.81381e-86
5.89481e-86
3.88903e-86
1.82441e-84
3.94367e-86
2.59272e-27
-2.97929e-22
2.68221e-19
-3.40145e-18
-8.2287e-18
4.43068e-19
-3.97957e-26
4.36124e-23
8.84206e-25
-1.38051e-30
6.31739e-06
-2.18898e-32
7.64647e-34
-4.59255e-36
-9.31975e-39
3.15222e-40
-1.07892e-42
-1.08621e-44
9.80627e-47
-3.48456e-49
-7.80566e-52
9.95829e-56
1.19865e-55
5.744e-58
-6.61221e-60
-1.51058e-62
4.39085e-65
6.55077e-67
7.50243e-69
3.25902e-71
3.77834e-74
1.23961e-77
7.30741e-82
5.34906e-84
0.00952195
-4.27125e-06
0.0109579
0.00988832
0.00748737
0.00224769
-0.00522826
-0.0108194
-0.0172214
-0.0247286
-0.0313996
-0.0356892
-0.0390458
-0.0383803
-0.0336678
-0.0303394
-0.0237837
-0.0173714
-0.0120572
-0.00720195
-0.00539151
-0.00271783
-0.00045743
-0.000203928
0.000243899
0.000362466
0.000582878
0.000413994
0.000312356
0.000306543
0.000289118
0.000169049
0.000110461
6.64291e-05
4.60413e-05
3.10135e-05
1.59279e-05
9.55176e-06
5.19348e-06
3.16743e-06
1.80572e-06
9.51566e-07
5.11362e-07
3.958e-07
1.88686e-07
1.15597e-07
6.10712e-08
3.03252e-08
1.63355e-08
7.2576e-09
4.1789e-09
2.40988e-09
8.99711e-10
4.30018e-10
1.56457e-10
8.26112e-11
3.72223e-11
9.82969e-12
2.46979e-12
4.70528e-12
7.37111e-13
6.77469e-13
2.63434e-13
7.43172e-14
8.88244e-14
-3.57275e-15
-2.40241e-14
-4.42378e-15
-5.60931e-15
-3.98983e-15
-3.12292e-15
-1.24716e-15
-7.60822e-16
-4.72497e-16
-1.80726e-16
-5.94948e-17
-3.62815e-17
-2.46559e-17
-2.18416e-17
1.65985e-05
-9.00005e-17
-1.68111e-28
4.71853e-06
-1.94445e-05
5.18412e-06
6.96775e-05
-0.000135843
-0.00050615
-0.000295379
0.00129303
3.22605e-06
1.91263e-06
4.92407e-06
0.00420964
5.70139e-06
1.63052e-06
8.75316e-07
-8.44464e-37
4.80242e-06
4.63664e-06
4.63458e-06
4.61606e-06
4.93718e-06
5.61294e-06
2.88674e-07
-6.42503e-07
-6.90962e-07
-9.13005e-07
1.66447e-29
-1.78486e-30
0.00774569
0.0011791
-4.46995e-26
4.64936e-27
1.13591e-05
2.48306e-05
2.46259e-05
8.58709e-06
2.22193e-05
-1.68446e-05
6.13736e-06
-3.13516e-05
-9.31794e-06
-7.66861e-06
-5.346e-06
3.48208e-05
3.68219e-05
6.82232e-05
8.47392e-05
3.29785e-05
0.000114615
-8.19065e-05
7.86177e-05
-0.000245261
-1.80981e-05
-0.000433733
-0.000161114
-0.000509937
-0.000317383
-0.000370305
-0.000398111
6.31041e-05
-0.000384722
0.000893352
-0.000186802
0.00197164
0.000223474
0.00342963
0.000674427
0.00544171
0.000916349
0.00696119
0.00151086
0.00859142
0.00160198
0.00973482
0.00179818
0.0104195
0.00111835
0.0105914
0.000523028
0.0101403
-0.000644156
0.00876718
-0.00206272
0.00708524
-0.00402165
0.00504823
-0.00608462
0.00168476
-0.00780265
-0.00155212
-0.0102691
-0.00388218
-0.0128129
-0.00650605
-0.0139967
-0.00860209
-0.0154306
-0.011135
-0.0162166
-0.0144128
-0.016871
-0.0165221
-0.017948
-0.0200696
-0.01832
-0.0228713
-0.0188029
-0.0251759
-0.0186877
-0.0271413
-0.0182868
-0.0292529
-0.0173079
-0.0309815
-0.0166335
-0.0321011
-0.0163507
-0.032822
-0.0147491
-0.0320221
-0.0130144
-0.0316567
-0.010244
-0.0303318
-0.00886813
-0.0275339
-0.00667144
-0.0256043
-0.00227937
-0.0223054
-0.00192739
-0.018673
0.00162911
-0.0168503
0.00509599
-0.0146621
0.00527902
-0.0112166
0.00628188
-0.00954536
0.00903516
-0.00719123
0.00843961
-0.00499418
0.00959307
-0.00277286
0.0100849
-0.00177686
0.010789
-0.000603072
0.0102105
0.00085084
0.0100339
0.00060021
0.0102885
0.00155734
0.00846502
0.00211057
0.0082718
0.00170742
0.00798184
0.00170348
0.00659122
0.00197669
0.00583663
0.00153357
0.00552613
0.00170571
0.0044136
0.00170218
0.00402594
0.0014518
0.00363002
0.00141624
0.00294111
0.00111345
0.00272651
0.000790807
0.00214151
0.000714661
0.00163115
0.000649485
0.00141144
0.000593348
0.00119401
0.000465752
0.00104314
0.000391497
0.000811132
0.000351885
0.000665107
0.000256591
0.000570174
0.000232311
0.000427717
0.000199136
0.000358428
0.000155491
0.000298653
0.000133785
0.00022773
9.84056e-05
0.000195442
6.77679e-05
0.000144398
5.62493e-05
0.00010435
4.66578e-05
8.51243e-05
3.8984e-05
6.80582e-05
2.97003e-05
5.53539e-05
2.39607e-05
4.20107e-05
2.02335e-05
3.38156e-05
1.40704e-05
2.7373e-05
1.18093e-05
1.9556e-05
9.45677e-06
1.55846e-05
6.59755e-06
1.24493e-05
5.06544e-06
8.84396e-06
4.13755e-06
6.7751e-06
2.92803e-06
5.38244e-06
2.32449e-06
3.86574e-06
1.83821e-06
3.03118e-06
1.45954e-06
2.33766e-06
1.06665e-06
1.8282e-06
8.25727e-07
1.33645e-06
6.62391e-07
1.03954e-06
4.49126e-07
8.10898e-07
3.59504e-07
5.59068e-07
2.75902e-07
4.29066e-07
1.87089e-07
3.30719e-07
1.39705e-07
2.28045e-07
1.09418e-07
1.70081e-07
7.30098e-08
1.30782e-07
5.78733e-08
8.9772e-08
4.41119e-08
6.81794e-08
3.12316e-08
5.17126e-08
2.405e-08
3.62248e-08
1.60517e-08
2.82495e-08
1.02486e-08
1.90038e-08
7.79315e-09
1.25998e-08
5.9109e-09
9.49187e-09
4.51829e-09
7.05122e-09
3.04105e-09
5.37676e-09
2.23568e-09
3.63267e-09
1.70615e-09
2.6515e-09
1.09759e-09
1.99558e-09
8.52695e-10
1.32679e-09
6.34628e-10
9.86717e-10
3.72083e-10
7.37051e-10
2.76485e-10
4.51514e-10
2.14033e-10
3.37279e-10
1.39359e-10
2.51802e-10
1.04353e-10
1.67653e-10
7.76089e-11
1.23992e-10
5.81187e-11
9.04648e-11
3.97487e-11
6.68736e-11
2.91893e-11
4.58471e-11
2.21404e-11
3.38888e-11
1.37145e-11
2.4954e-11
1.0392e-11
1.59718e-11
7.57232e-12
1.16325e-11
4.68935e-12
8.51376e-12