/*--------------------------------*- C++ -*----------------------------------*\
  =========                 |
  \\      /  F ield         | OpenFOAM: The Open Source CFD Toolbox
   \\    /   O peration     | Website:  https://openfoam.org
    \\  /    A nd           | Version:  7
     \\/     M anipulation  |
\*---------------------------------------------------------------------------*/
FoamFile
{
    version     2.0;
    format      ascii;
    class       volScalarField;
    location    "0.05";
    object      T;
}
// * * * * * * * * * * * * * * * * * * * * * * * * * * * * * * * * * * * * * //

dimensions      [0 0 0 1 0 0 0];

internalField   nonuniform List<scalar> 
23686
(
0.510156
0.909204
0.992018
0.991032
1.00343
1.04209
1.00135
1.0393
0.998515
1.03218
0.997292
1.02937
0.997046
1.02659
0.996534
1.02469
0.99668
1.02437
0.996473
1.02411
0.996624
1.02426
0.996906
1.02526
0.996482
1.02644
0.996918
1.02588
0.996318
1.02426
0.996045
1.0243
0.996531
1.02391
0.995705
1.02321
0.995777
1.02272
0.995779
1.02221
0.99589
1.02271
0.995974
1.02308
0.995966
1.02328
0.99609
1.02293
0.995948
1.02288
0.99632
1.02352
0.996091
1.02353
0.995771
1.02356
0.996521
1.02349
0.995982
1.0237
0.996822
1.02454
0.996203
1.02406
0.996115
1.02439
0.996279
1.02398
0.99576
1.02253
0.995367
1.02166
0.995927
1.02219
0.995908
1.02324
0.996224
1.0237
0.995958
1.02328
0.996062
1.02284
0.995715
1.02278
0.996189
1.02299
0.995947
1.02297
0.996168
1.02371
0.996613
1.02364
0.995879
1.02378
0.996634
1.02422
0.996206
1.02388
0.996232
1.02462
0.996708
1.02457
0.996154
1.02428
0.996179
1.02444
0.996529
1.02431
0.996198
1.02411
0.99623
1.02406
0.996058
1.0237
0.996066
1.02297
0.995679
1.02272
0.996139
1.02287
0.995895
1.02283
0.996116
1.02359
0.996492
1.02352
0.996164
1.02402
0.997004
1.02503
0.996503
1.02521
0.996571
1.02585
0.997023
1.02525
0.996214
1.02455
0.996225
1.02464
0.99652
1.02424
0.996223
1.02399
0.996444
1.02399
0.995864
1.02369
0.995896
1.02311
0.995729
1.02246
0.996047
1.02248
0.995886
1.02277
0.996131
1.02373
0.996393
1.02363
0.995986
1.02391
0.996682
1.02445
0.996058
1.02376
0.996038
1.02355
0.996602
1.0237
0.996039
1.02409
0.996153
1.02447
0.996255
1.02399
0.99614
1.02341
0.996307
1.02327
0.995855
1.0234
0.996003
1.02303
0.995683
1.02224
0.996256
1.02157
0.99595
1.021
0.996495
1.02156
0.997702
1.02103
0.999763
1.0211
0.997898
1.03544
1.02366
0.101951
-0.000597538
-0.000447573
-2.19454e-05
4.51902e-08
5.05636e-08
3.763e-09
1.3289e-10
2.14233e-12
-5.29498e-14
-5.56884e-15
-2.22703e-16
-6.16632e-18
-1.40472e-19
-1.88672e-21
3.46338e-24
1.09876e-24
4.17883e-26
1.02708e-27
2.12245e-29
3.70411e-31
4.34144e-33
4.02848e-35
3.27181e-37
3.69193e-40
2.37891e-43
0
0
0
0
0
0
0
0
0
0
0
0
0
0
0
0
0
0
0
0
0
0
0
0
0
0
0
0
0
0
0
0
0
0
0
0
0
5.94763e-65
1.62585e-60
2.26266e-58
1.19283e-57
-1.38735e-54
2.03499e-52
1.69701e-50
2.95283e-49
-8.90873e-48
-1.40554e-46
-1.99441e-45
3.00189e-43
5.60893e-42
9.96697e-41
7.15406e-40
5.79894e-39
9.81163e-39
9.82319e-38
4.14692e-37
5.02e-37
4.6829e-37
4.00179e-35
3.4707e-34
7.47723e-34
1.3484e-33
2.55955e-33
4.51821e-33
7.19609e-33
1.23476e-32
1.97872e-32
1.83401e-32
9.83235e-33
5.70634e-33
5.01201e-33
6.12888e-33
3.53291e-33
1.39736e-33
1.02908
1.04999
0.867545
0.924469
0.68268
0.742226
0.494492
0.548363
0.335103
0.378829
0.219222
0.250284
0.142473
0.162905
0.0880268
0.101685
0.0526873
0.0612005
0.030112
0.0352401
0.0173647
0.0203177
0.00999718
0.0117579
0.00549805
0.00652046
0.00307655
0.00363757
0.00168235
0.00199962
0.000892233
0.0010645
0.00047298
0.000563976
0.000250917
0.000300414
0.000126241
0.000152292
6.46766e-05
7.76096e-05
3.34007e-05
4.01627e-05
1.68503e-05
2.04294e-05
8.32733e-06
1.00697e-05
4.23558e-06
5.12024e-06
2.08103e-06
2.5216e-06
1.02142e-06
1.23912e-06
4.85722e-07
5.90567e-07
2.33719e-07
2.83271e-07
1.1387e-07
1.38597e-07
5.31644e-08
6.48201e-08
2.54479e-08
3.09733e-08
1.20233e-08
1.46871e-08
5.54275e-09
6.7577e-09
2.58833e-09
3.15199e-09
1.21271e-09
1.48296e-09
5.43111e-10
6.64322e-10
2.49468e-10
3.04254e-10
1.14977e-10
1.40538e-10
5.11816e-11
6.2588e-11
2.33996e-11
2.86991e-11
1.02371e-11
1.25569e-11
4.56145e-12
5.5867e-12
2.01383e-12
2.47191e-12
8.70394e-13
1.06657e-12
3.79259e-13
4.63768e-13
1.68292e-13
2.06596e-13
7.19486e-14
8.82835e-14
3.12904e-14
3.83462e-14
1.36199e-14
1.67198e-14
5.81066e-15
7.15549e-15
2.44612e-15
3.0006e-15
1.054e-15
1.29293e-15
4.4987e-16
5.52639e-16
1.89604e-16
2.33038e-16
7.9667e-17
9.77128e-17
3.33229e-17
4.08601e-17
1.40307e-17
1.72767e-17
5.77585e-18
7.09932e-18
2.39229e-18
2.93868e-18
9.92373e-19
1.22178e-18
3.98075e-19
4.88319e-19
1.64388e-19
2.01445e-19
6.75859e-20
8.31844e-20
2.68015e-20
3.29188e-20
1.08496e-20
1.33152e-20
4.34201e-21
5.33893e-21
1.71864e-21
2.11907e-21
6.74057e-22
8.2795e-22
2.71134e-22
3.33239e-22
1.07548e-22
1.3213e-22
4.26104e-23
5.24371e-23
1.66725e-23
2.04466e-23
6.73463e-24
8.24818e-24
2.68596e-24
3.30693e-24
1.05482e-24
1.29519e-24
4.24358e-25
5.21139e-25
1.7248e-25
2.12366e-25
6.81979e-26
8.36539e-26
2.73409e-26
3.35119e-26
1.09246e-26
1.34483e-26
4.25502e-27
5.22441e-27
1.66422e-27
2.04118e-27
6.36113e-28
7.81359e-28
2.40833e-28
2.95425e-28
9.01541e-29
1.11078e-28
3.23191e-29
3.97288e-29
1.1401e-29
1.40088e-29
3.91849e-30
4.82521e-30
1.29092e-30
1.58434e-30
4.24168e-31
5.19775e-31
1.38536e-31
1.70591e-31
5.02637e-32
6.1809e-32
2.07105e-32
2.55199e-32
1.02961e-32
1.27625e-32
6.13938e-33
7.67344e-33
3.60488e-33
4.53964e-33
2.53041e-33
3.26174e-33
1.91503e-33
1.74746e-33
2.47535e-33
0
3.27434e-33
0.0155002
-0.00114685
-0.000113969
-2.83841e-06
1.30661e-07
1.49411e-08
7.67823e-10
1.94036e-11
5.00971e-14
-2.04718e-14
-1.16429e-15
-3.88195e-17
-9.42326e-19
-1.75184e-20
-1.34865e-22
3.69753e-24
2.36901e-25
7.1232e-27
1.53815e-28
2.81133e-30
4.29608e-32
3.92471e-34
2.20145e-36
1.06182e-38
1.8635e-41
0
0
0
0
0
0
0
0
0
0
0
0
0
0
0
0
0
0
0
0
0
0
0
-0.00152102
0
4.22972e-33
0
0
0
0
0
0
0
0
0
0
0
0
0
8.98187e-63
1.03045e-59
3.47593e-57
5.85777e-57
6.08754e-54
3.4081e-51
3.19611e-50
1.09325e-48
6.59655e-48
-1.51811e-45
4.40569e-44
2.86228e-42
2.25523e-41
-1.4174e-41
3.95674e-39
6.22018e-39
1.69293e-38
1.9863e-37
4.77905e-37
1.43457e-36
4.81049e-36
1.39851e-34
5.34305e-34
1.02049e-33
1.97752e-33
3.37778e-33
5.68152e-33
9.39103e-33
1.63244e-32
1.94549e-32
1.43413e-32
7.60379e-33
4.54622e-33
6.35475e-33
4.52717e-33
-9.15172e-05
0.0690793
-6.5126e-07
0.441132
-0.000429228
-1.40481e-05
4.0368e-07
5.76046e-08
3.25485e-09
9.33522e-11
7.50048e-13
-7.49207e-14
-5.15921e-15
-1.84004e-16
-4.54513e-18
-9.09052e-20
-8.21365e-22
1.54368e-23
1.04938e-24
3.39737e-26
7.43266e-28
1.37636e-29
2.15823e-31
2.01714e-33
1.11361e-35
5.12916e-38
9.29323e-41
0
0
0
0
0
0
0
0
0
0
0
0
0
0
0
0
0
0
0
0
0
0
0
0
0
0
0
0
0
0
0
0
0
0
0
0
1.17855e-62
1.35335e-59
4.57857e-57
7.69249e-57
7.98226e-54
4.49032e-51
4.21815e-50
1.43607e-48
8.65777e-48
-1.99653e-45
5.81117e-44
3.7555e-42
2.97057e-41
-1.81064e-41
5.19348e-39
8.1828e-39
2.23615e-38
2.60893e-37
6.27953e-37
1.89583e-36
6.36122e-36
1.83367e-34
7.03258e-34
1.34133e-33
2.59783e-33
4.43174e-33
7.46812e-33
1.239e-32
2.13677e-32
2.55811e-32
1.88863e-32
9.97392e-33
5.93416e-33
8.25729e-33
5.81846e-33
0
1.92006e-07
1.44481e-08
6.03897e-10
1.17537e-11
-1.41162e-13
-2.15318e-14
-1.01524e-15
-3.04805e-17
-6.63778e-19
-1.00744e-20
-4.45132e-24
4.44041e-24
1.9548e-25
5.15364e-27
1.06419e-28
1.7435e-30
2.21135e-32
2.12222e-34
1.53588e-36
1.70921e-39
1.14852e-42
0
0
0
0
0
0
0
0
0
0
0
0
0
0
0
0
0
0
0
0
0
0
0
0
0
0
0
0
0
0
0
0
0
0
7.81893e-65
2.13761e-60
2.9766e-58
1.57451e-57
-1.82453e-54
2.66654e-52
2.22864e-50
3.87563e-49
-1.17429e-47
-1.85449e-46
-2.62697e-45
3.95679e-43
7.35254e-42
1.30998e-40
9.46151e-40
7.62701e-39
1.28884e-38
1.29271e-37
5.45488e-37
6.62047e-37
6.22044e-37
5.28274e-35
4.54032e-34
9.80278e-34
1.77214e-33
3.37323e-33
5.94673e-33
9.46655e-33
1.62055e-32
2.59041e-32
2.41121e-32
1.29779e-32
7.48485e-33
6.51547e-33
7.89363e-33
4.71189e-33
0.00185971
-0.00304541
0
0.617792
-0.000694142
0.976636
1.04414
0.988513
1.05616
1.0376
1.05546
1.04718
1.05533
1.05164
1.05382
1.05333
1.0529
1.05199
1.05204
1.04846
1.05344
1.05006
1.05289
1.04904
1.0517
1.04828
1.05364
1.04992
1.05371
1.05132
1.05136
1.04878
1.05242
1.05198
1.05167
1.05091
1.05174
1.05015
1.05309
1.05299
1.05148
1.05128
1.05173
1.05019
1.05157
1.05
1.05208
1.04971
1.05215
1.05081
1.05212
1.05081
1.05159
1.04847
1.0533
1.05066
1.05272
1.05029
1.05205
1.05087
1.0509
1.05014
1.05247
1.0496
1.05159
1.04809
1.05343
1.05183
1.05202
1.04986
1.05294
1.05201
1.05253
1.05317
1.05098
1.05118
1.05114
1.04965
1.05187
1.04998
1.05224
1.05002
1.05243
1.05079
1.05208
1.05068
1.05254
1.05033
1.05181
1.05023
1.05247
1.04941
1.05259
1.05003
1.05248
1.04941
1.05315
1.05046
1.05143
1.04858
1.05354
1.05162
1.05239
1.04909
1.05265
1.05007
1.05287
1.0508
1.0518
1.04895
1.05175
1.0505
1.0521
1.05103
1.05237
1.05034
1.05246
1.05118
1.05203
1.05089
1.05254
1.05038
1.05175
1.05001
1.05241
1.0493
1.05228
1.05013
1.05183
1.04966
1.05214
1.04817
1.05177
1.04942
1.05283
1.05179
1.05201
1.04957
1.05234
1.04965
1.05298
1.05076
1.05178
1.04919
1.05167
1.05048
1.05173
1.05054
1.05199
1.04999
1.05343
1.05292
1.05203
1.05099
1.05236
1.04998
1.05156
1.04953
1.05236
1.04933
1.05206
1.05059
1.05088
1.05061
1.0516
1.05073
1.05275
1.05061
1.05232
1.05018
1.05183
1.04955
1.05232
1.04932
1.05309
1.05094
1.05234
1.0497
1.05206
1.05104
1.05152
1.05034
1.05193
1.04925
1.05379
1.05214
1.05182
1.05022
1.05353
1.05099
1.05197
1.04874
1.05391
1.04651
1.05734
1.04541
1.05911
1.02338
1.03682
0
0.0102899
-8.75983e-05
0.235085
-3.79344e-06
-3.87406e-08
7.08134e-09
5.25579e-10
1.9845e-11
4.40268e-13
-1.33125e-15
-5.65306e-16
-2.94153e-17
-8.15926e-19
-1.85462e-20
-3.08227e-22
-1.9709e-24
7.72087e-26
3.7352e-27
1.07871e-28
2.22228e-30
3.58964e-32
4.95957e-34
4.81732e-36
2.29834e-38
7.15904e-41
1.20854e-43
2.05985e-48
0
0
0
0
0
0
0
0
0
0
0
0
0
0
0
0
0
0
0
0
0
0
0.00030631
0.00462393
-0.00107634
0
6.4337e-33
3.88787e-33
-5.60861e-07
-2.53753e-07
0.529579
0
0
0
0
0
0
0
0
0
0
1.38344e-64
3.78872e-60
5.478e-58
2.52825e-57
-3.3432e-54
4.72826e-52
3.916e-50
6.85626e-49
-2.13614e-47
-3.33581e-46
-4.58142e-45
7.05503e-43
1.28129e-41
2.34096e-40
1.72376e-39
1.28329e-38
2.16026e-38
2.27497e-37
9.20479e-37
1.0776e-36
1.02481e-36
9.65598e-35
7.7031e-34
1.61828e-33
2.8832e-33
5.49645e-33
9.74215e-33
1.54758e-32
2.61991e-32
4.1159e-32
3.74714e-32
1.9224e-32
1.15408e-32
1.0619e-32
1.28218e-32
6.5798e-33
9.51256e-33
0.0567842
0.186058
0.0357031
-0.000307659
-0.000280511
-2.06911e-05
-1.48622e-05
0.865398
0.943365
0.688954
0.765874
0.496305
0.565184
0.342167
0.393831
0.227615
0.265121
0.146145
0.170784
0.0907152
0.106803
0.0536833
0.0636088
0.0308007
0.0368279
0.0178252
0.0212623
0.0103172
0.0122675
0.00581262
0.00698208
0.00322945
0.0038763
0.00174764
0.00210136
0.000933765
0.00112841
0.000493734
0.000597171
0.000262718
0.000316462
0.000135342
0.00016463
6.87998e-05
8.35643e-05
3.51432e-05
4.25779e-05
1.83849e-05
2.22538e-05
9.20235e-06
1.12233e-05
4.52792e-06
5.5124e-06
2.27333e-06
2.76638e-06
1.10701e-06
1.34677e-06
5.29938e-07
6.49224e-07
2.56012e-07
3.12719e-07
1.25379e-07
1.52285e-07
5.95369e-08
7.28479e-08
2.83679e-08
3.46812e-08
1.33447e-08
1.62887e-08
6.2177e-09
7.61705e-09
2.89158e-09
3.54267e-09
1.35558e-09
1.65292e-09
6.20914e-10
7.61051e-10
2.81624e-10
3.45449e-10
1.27263e-10
1.55582e-10
5.87907e-11
7.1978e-11
2.67832e-11
3.26497e-11
1.19113e-11
1.46216e-11
5.26676e-12
6.46537e-12
2.3155e-12
2.83284e-12
1.00365e-12
1.23402e-12
4.39322e-13
5.39194e-13
1.94904e-13
2.37911e-13
8.51631e-14
1.04501e-13
3.66919e-14
4.51121e-14
1.58454e-14
1.93992e-14
6.96607e-15
8.5032e-15
2.96026e-15
3.64533e-15
1.22327e-15
1.49763e-15
5.36315e-16
6.55913e-16
2.2898e-16
2.80654e-16
9.58099e-17
1.17683e-16
4.02587e-17
4.93176e-17
1.70082e-17
2.07642e-17
7.1335e-18
8.75767e-18
2.93748e-18
3.6099e-18
1.21702e-18
1.49028e-18
4.88472e-19
5.99976e-19
2.02856e-19
2.49081e-19
8.31296e-20
1.01578e-19
3.35231e-20
4.11334e-20
1.34738e-20
1.65696e-20
5.35641e-21
6.55669e-21
2.17567e-21
2.65476e-21
8.61859e-22
1.0614e-21
3.38655e-22
4.14426e-22
1.37581e-22
1.68647e-22
5.45211e-23
6.66697e-23
2.14822e-23
2.63765e-23
8.73094e-24
1.07061e-23
3.52003e-24
4.29479e-24
1.40115e-24
1.71704e-24
5.63316e-25
6.91289e-25
2.29072e-25
2.80053e-25
9.11755e-26
1.11955e-25
3.64538e-26
4.47683e-26
1.4567e-26
1.77968e-26
5.73263e-27
7.03181e-27
2.22142e-27
2.72974e-27
8.34184e-28
1.02018e-27
3.21705e-28
3.94155e-28
1.19319e-28
1.45616e-28
4.28649e-29
5.25913e-29
1.49826e-29
1.8409e-29
5.10102e-30
6.2423e-30
1.67722e-30
2.06105e-30
5.56772e-31
6.83518e-31
1.86328e-31
2.27566e-31
7.21206e-32
8.8446e-32
3.2305e-32
3.97528e-32
1.74668e-32
2.14255e-32
1.10785e-32
1.35574e-32
6.22992e-33
7.75588e-33
0.800539
0
-0.000830131
0.810198
0
-6.97347e-05
0
0
1.38554e-08
2.06913e-09
1.07204e-10
3.21327e-12
3.78467e-14
-1.7636e-15
-1.37353e-16
-5.24492e-18
-1.26727e-19
-2.53274e-21
-3.23182e-23
2.3245e-25
2.17881e-26
6.41351e-28
1.67263e-29
2.83691e-31
3.50304e-33
3.47654e-35
3.6259e-37
1.45814e-39
3.40891e-42
7.99869e-46
0
0
0
0
0
0
0
0
0
0
0
0
0
0
0
0
0
0
0
0
0
0
1.93684e-08
0
0
0
0
0
0
0
0
0
0
0
2.06203e-62
2.35539e-59
7.93251e-57
1.3662e-56
1.40643e-53
7.89273e-51
7.25159e-50
2.48058e-48
1.49035e-47
-3.52811e-45
1.07601e-43
6.39961e-42
5.21922e-41
-4.67022e-41
9.13492e-39
1.28959e-38
3.79266e-38
4.35439e-37
1.0015e-36
3.24546e-36
1.18532e-35
3.1904e-34
1.13856e-33
2.17332e-33
4.16539e-33
7.13092e-33
1.18144e-32
2.04914e-32
3.41249e-32
3.97217e-32
2.79733e-32
1.53193e-32
8.98236e-33
1.35993e-32
9.17945e-33
2.15495e-08
-3.98577e-18
0
-1.15549e-16
4.78092e-33
-2.37057e-06
-2.00418e-15
1.6613e-32
1.40031e-32
1.5208e-32
2.5203e-32
4.91703e-32
5.42201e-32
3.45561e-32
2.02724e-32
1.27943e-32
7.20194e-33
3.78281e-33
2.13471e-33
1.01722e-33
1.26059e-34
1.34966e-36
1.42549e-36
1.21232e-36
2.9938e-37
2.85032e-38
1.69043e-38
2.25186e-39
3.07708e-40
1.69327e-41
9.3389e-43
-6.01988e-45
-4.37066e-46
-2.80441e-47
9.07473e-49
5.17469e-50
6.26495e-52
-4.40868e-54
3.31366e-57
7.20218e-58
4.98767e-60
1.83158e-64
0
0
0
0
0
0
0
0
0
0
0
0
0
0
0
0
0
0
0
0
0
0
0
0
0
0
0
0
0
1.14224e-47
5.58147e-43
3.66135e-40
1.27908e-37
2.43799e-35
2.40052e-33
1.71265e-31
1.08072e-29
4.64092e-28
1.67979e-26
3.02189e-25
-1.32089e-23
-1.48247e-21
-8.65569e-20
1.1497e-32
1.76357e-32
1.18408e-32
2.02652e-32
3.67816e-32
5.20176e-32
4.49982e-32
2.67737e-32
1.55364e-32
9.42447e-33
5.48328e-33
2.85154e-33
1.4885e-33
4.19799e-34
1.56201e-35
4.29343e-36
1.32405e-36
5.75877e-37
4.96782e-38
1.69361e-38
1.20731e-38
-6.15358e-41
6.84737e-41
8.46934e-42
1.41225e-43
-4.65254e-45
1.97333e-47
3.27159e-48
9.50465e-50
1.03396e-50
1.85732e-53
1.80755e-56
1.04392e-56
3.10822e-59
2.72691e-62
0
0
0
0
0
0
0
0
0
0
0
0
0
0
0
0
0
0
0
0
0
0
0
0
0
0
0
0
3.96962e-45
1.64894e-41
7.05124e-39
1.85064e-36
1.61069e-34
1.65611e-32
1.314e-30
7.32374e-29
2.85579e-27
8.5571e-26
4.7501e-25
-1.58682e-22
-1.17284e-20
-5.75143e-19
-2.30702e-17
-5.21376e-16
-5.03252e-15
2.26923e-13
1.38559e-11
4.2503e-10
7.24421e-09
2.06931e-12
7.97847e-11
1.82244e-09
7.06991e-15
0
0
0
0
0
0
-0.000106932
0.905809
0.937013
0.860393
0.954989
0.893026
0.966657
0.911459
0.97039
0.918899
0.967811
0.919559
0.96611
0.916382
0.965944
0.91629
0.965063
0.915619
0.966582
0.917472
0.969089
0.916539
0.968416
0.919313
0.9692
0.916147
0.970905
0.917115
0.969673
0.919255
0.971199
0.918257
0.969986
0.918378
0.970495
0.922243
0.970575
0.920817
0.969724
0.921476
0.96963
0.919902
0.970392
0.919917
0.9683
0.920095
0.967385
0.917796
0.968539
0.918935
0.969418
0.919389
0.970725
0.920401
0.969918
0.919581
0.967698
0.918551
0.968659
0.915275
0.968528
0.916407
0.968851
0.917276
0.970919
0.917763
0.970462
0.917531
0.970754
0.921246
0.970666
0.920294
0.969918
0.921361
0.969614
0.92003
0.969731
0.919894
0.969245
0.9201
0.969324
0.918714
0.968506
0.919659
0.967646
0.917762
0.966562
0.917695
0.967851
0.91619
0.967776
0.91841
0.968283
0.915571
0.966541
0.916525
0.966152
0.916632
0.968826
0.917267
0.968508
0.919501
0.968512
0.918216
0.970955
0.919336
0.969728
0.920509
0.969793
0.919882
0.970119
0.920318
0.96942
0.920349
0.969229
0.91871
0.968386
0.919498
0.968025
0.917772
0.969396
0.918526
0.967641
0.9182
0.967128
0.916664
0.968471
0.914055
0.968234
0.917225
0.967149
0.918383
0.96895
0.917553
0.968938
0.9199
0.968982
0.918985
0.97122
0.91979
0.969733
0.91969
0.970938
0.918092
0.969451
0.917517
0.968276
0.918585
0.967939
0.916975
0.967482
0.918087
0.968195
0.917281
0.970775
0.919452
0.971565
0.920609
0.970653
0.921992
0.970041
0.919982
0.96904
0.920435
0.967176
0.918796
0.969373
0.917623
0.969194
0.920721
0.97025
0.920499
0.971406
0.920551
0.969407
0.919568
0.970527
0.917276
0.969311
0.916606
0.970541
0.919176
0.971717
0.919561
0.971876
0.922645
0.971291
0.922127
0.973156
0.902344
0.929316
0
-4.2476e-07
-1.31746e-16
0
6.23801e-33
-1.16469e-17
9.85083e-12
3.04411e-13
-2.97372e-09
7.30209e-10
4.96047e-11
3.93462e-11
1.87769e-12
7.41699e-12
1.31666e-12
2.62868e-32
5.45208e-33
2.93022e-17
-3.12552e-16
0
-4.49321e-17
-4.1581e-17
1.76419e-32
-4.10484e-19
-1.1682e-20
-2.58048e-22
-3.5454e-24
-2.23483e-26
6.00408e-28
3.23066e-29
7.79502e-31
1.12406e-32
1.55562e-34
1.88765e-36
1.27659e-38
4.04602e-41
1.62122e-43
7.1506e-48
0
0
0
0
0
0
0
0
0
0
0
0
0
0
0
0
0
0
0
-2.13344e-06
-1.54634e-06
0
0
0
0
0
0
0
0
0
0
0
0
0
0
0
0
0
4.97349e-62
5.63845e-59
1.86403e-56
3.10953e-56
3.47687e-53
1.88953e-50
1.68303e-49
5.75943e-48
3.49395e-47
-8.40647e-45
2.48459e-43
1.54291e-41
1.23579e-40
-1.51401e-40
2.10585e-38
2.70579e-38
8.50588e-38
9.77619e-37
2.1657e-36
7.64199e-36
2.83577e-35
7.30478e-34
2.47881e-33
4.73376e-33
8.95669e-33
1.54483e-32
2.54055e-32
4.2921e-32
7.38926e-32
8.23165e-32
5.46126e-32
3.06742e-32
1.84686e-32
2.92438e-32
3.46808e-32
-6.11396e-08
-2.74006e-07
-2.713e-08
0.734668
0.815265
0.531589
0.60881
0.369164
0.425731
0.249136
0.289018
0.161755
0.189196
0.0982428
0.116233
0.0582977
0.0693795
0.0337176
0.0403163
0.0198091
0.0236203
0.011341
0.0135241
0.00649832
0.00778626
0.00359268
0.00430994
0.00193227
0.00233444
0.00102194
0.00124094
0.00054814
0.00066325
0.000292589
0.000353225
0.000149176
0.000182174
7.76604e-05
9.4261e-05
3.96528e-05
4.82406e-05
2.07871e-05
2.53056e-05
1.03716e-05
1.26187e-05
5.21831e-06
6.3833e-06
2.55899e-06
3.12609e-06
1.25125e-06
1.53158e-06
6.04606e-07
7.41655e-07
2.97508e-07
3.63971e-07
1.4199e-07
1.73356e-07
6.89687e-08
8.47566e-08
3.28412e-08
4.01315e-08
1.54659e-08
1.8968e-08
7.13651e-09
8.79413e-09
3.36599e-09
4.12794e-09
1.57958e-09
1.93186e-09
7.1344e-10
8.7836e-10
3.30491e-10
4.0564e-10
1.48389e-10
1.82486e-10
6.89642e-11
8.49243e-11
3.09598e-11
3.79574e-11
1.41141e-11
1.73562e-11
6.24807e-12
7.6689e-12
2.73266e-12
3.36821e-12
1.19001e-12
1.46561e-12
5.30919e-13
6.53902e-13
2.32839e-13
2.85113e-13
1.00559e-13
1.23868e-13
4.42492e-14
5.43969e-14
1.92399e-14
2.36822e-14
8.39612e-15
1.03478e-14
3.57963e-15
4.39972e-15
1.49937e-15
1.84709e-15
6.51986e-16
8.01485e-16
2.79102e-16
3.43049e-16
1.16335e-16
1.43291e-16
4.99845e-17
6.16771e-17
2.07387e-17
2.54591e-17
8.8947e-18
1.09471e-17
3.6638e-18
4.50289e-18
1.51345e-18
1.86595e-18
6.12614e-19
7.56886e-19
2.55726e-19
3.15252e-19
1.03954e-19
1.27429e-19
4.1591e-20
5.12283e-20
1.70504e-20
2.09707e-20
6.81286e-21
8.38473e-21
2.74708e-21
3.38338e-21
1.09136e-21
1.34034e-21
4.3944e-22
5.4188e-22
1.76221e-22
2.16973e-22
7.03054e-23
8.65983e-23
2.79594e-23
3.44059e-23
1.15573e-23
1.42571e-23
4.59053e-24
5.62816e-24
1.86368e-24
2.30139e-24
7.51844e-25
9.22668e-25
3.06513e-25
3.76776e-25
1.21492e-25
1.50098e-25
4.90441e-26
6.02785e-26
1.956e-26
2.39692e-26
7.62305e-27
9.39079e-27
2.98854e-27
3.67508e-27
1.11061e-27
1.36615e-27
4.27859e-28
5.28006e-28
1.55742e-28
1.91107e-28
5.64475e-29
6.94447e-29
1.9741e-29
2.42554e-29
6.62784e-30
8.14311e-30
2.21842e-30
2.72856e-30
7.46094e-31
9.20309e-31
2.55342e-31
3.12679e-31
1.04546e-31
1.28903e-31
5.05221e-32
6.20015e-32
2.8958e-32
3.55938e-32
1.96214e-32
2.40877e-32
-9.16595e-06
-7.29828e-06
1.32978e-32
0.000366216
4.31762e-15
1.53336e-15
-0.000199323
-0.000260945
7.5884e-33
0
0.549901
0
0
0.821913
8.16766e-33
1.97228e-13
4.00333e-14
1.6994e-09
1.99881e-10
0
2.59278e-09
-1.51825e-16
1.80771e-32
-2.25975e-18
-6.98693e-20
-1.81754e-21
-3.32165e-23
-4.04782e-25
2.59617e-28
1.62345e-28
5.5673e-30
1.16439e-31
1.94552e-33
2.08773e-35
1.65526e-37
7.14402e-40
2.50965e-42
1.86249e-45
0
0
0
0
0
0
0
0
0
0
0
0
0
0
0
0
0
0
0
-9.89249e-18
0
2.41431e-32
0.0282405
-0.000140086
0
0
0
0.79428
0
0
0
0
0
0
0
0
0
3.28562e-64
9.02019e-60
1.27289e-57
5.36063e-57
-7.92495e-54
1.15491e-51
9.09833e-50
1.63546e-48
-5.15145e-47
-7.95835e-46
-1.03497e-44
1.69978e-42
2.91239e-41
5.41607e-40
4.18176e-39
2.79765e-38
4.85618e-38
5.23268e-37
2.10411e-36
2.27906e-36
2.20469e-36
2.2777e-34
1.76096e-33
3.5238e-33
6.20525e-33
1.1874e-32
2.11781e-32
3.32331e-32
5.59489e-32
8.7708e-32
7.56949e-32
3.75889e-32
2.32198e-32
2.31886e-32
-3.37083e-05
0
1.05225e-32
0.0774313
-2.80157e-05
3.85841e-32
2.44822e-32
4.04301e-32
7.16124e-32
1.08036e-31
9.7179e-32
5.62748e-32
3.33596e-32
2.02435e-32
1.17394e-32
6.21829e-33
3.25006e-33
9.61043e-34
3.72525e-35
1.00401e-35
2.84865e-36
1.28313e-36
1.11882e-37
3.57084e-38
2.7718e-38
-1.98842e-40
1.62492e-40
2.03939e-41
3.27158e-43
-1.10585e-44
4.59013e-47
7.5703e-48
2.2138e-49
2.48315e-50
4.6012e-53
4.09415e-56
2.44704e-56
0
0
0
0
0
0
0
0
0
0
0
0
0
0
0
0
0
0
0
3.61102e-47
8.27677e-43
2.07794e-40
6.11264e-38
9.36635e-36
7.14055e-34
5.45441e-32
3.48971e-30
1.36023e-28
1.58661e-27
-1.74465e-25
-1.93004e-23
1.7271e-10
2.43649e-14
3.03587e-32
3.06206e-32
4.9425e-32
9.95822e-32
1.15062e-31
7.3469e-32
4.36323e-32
2.76833e-32
1.55772e-32
8.16633e-33
4.62673e-33
2.29372e-33
2.99527e-34
2.94367e-36
3.01372e-36
2.76827e-36
6.88242e-37
6.36428e-38
3.67863e-38
5.49131e-39
7.13373e-40
3.83259e-41
2.22778e-42
-1.36294e-44
-1.04678e-45
-6.77697e-47
2.15173e-48
1.19736e-49
1.51003e-51
-1.04243e-53
7.0724e-57
0.0055541
0.0195162
0.00280815
1.67442e-57
1.18458e-59
4.33145e-64
0
0
0
0
0
0
0
0
0
0
0
0
0
0
0
0
0
0
0
0
0
0
9.15651e-45
1.3198e-41
3.57653e-39
7.9657e-37
1.04757e-34
8.75622e-33
5.41363e-31
2.46913e-29
5.97147e-28
-6.41184e-27
-2.13449e-24
-1.65931e-22
-8.11289e-21
-3.07963e-19
0
0.569305
0
2.17094e-09
7.08647e-10
0
-1.2204e-21
-5.19372e-20
-1.78702e-18
0
0
7.40879e-59
6.56904e-62
0
0
0
0
0
-0.000101235
6.38359e-11
6.24209e-32
1.32439e-58
0.757548
0.792733
0.713807
0.805709
0.745356
0.805577
0.751212
0.802534
0.748166
0.800743
0.745463
0.802745
0.744437
0.802213
0.745168
0.80055
0.744786
0.80351
0.744519
0.800723
0.747999
0.801027
0.745886
0.803782
0.748095
0.801988
0.748391
0.802491
0.74578
0.807803
0.748816
0.807948
0.753106
0.80602
0.750782
0.806596
0.75078
0.806817
0.752584
0.806555
0.751807
0.804865
0.750118
0.804017
0.74841
0.806236
0.748828
0.806653
0.751404
0.804262
0.750981
0.8037
0.748254
0.799637
0.747211
0.800331
0.744646
0.80229
0.747044
0.801158
0.746436
0.801444
0.745343
0.805563
0.747906
0.807079
0.75183
0.805992
0.750982
0.806608
0.750653
0.806842
0.752627
0.806957
0.752159
0.805412
0.750913
0.804726
0.749931
0.804866
0.749233
0.803635
0.748674
0.802114
0.74849
0.804112
0.747061
0.800701
0.748618
0.801425
0.745834
0.804278
0.748193
0.804864
0.750589
0.806058
0.750418
0.805255
0.750138
0.803311
0.748632
0.80483
0.748064
0.806495
0.750506
0.807289
0.752764
0.807149
0.752498
0.805223
0.750818
0.804606
0.749695
0.804712
0.74916
0.803927
0.748463
0.802542
0.748581
0.802286
0.747246
0.799064
0.746655
0.801749
0.745163
0.805235
0.74854
0.805081
0.751514
0.806282
0.75033
0.805927
0.750716
0.80486
0.750423
0.803843
0.748675
0.801655
0.748002
0.801439
0.745453
0.804279
0.748262
0.802777
0.748466
0.803055
0.747948
0.804627
0.748605
0.805109
0.749102
0.805001
0.74994
0.806513
0.749459
0.807584
0.752766
0.805606
0.751418
0.806083
0.750526
0.805749
0.75251
0.808191
0.751289
0.806669
0.751013
0.803891
0.748337
0.803649
0.747792
0.800825
0.747569
0.800163
0.743902
0.803736
0.745953
0.805549
0.748443
0.809742
0.752781
0.810022
0.755755
0.80979
1.83652e-14
0.758453
0
0.100896
0
1.02813e-32
0.20727
8.79442e-13
6.03252e-16
-3.46987e-10
-4.18027e-08
0
4.7426e-15
2.93956e-15
-5.67619e-09
-2.65469e-08
-2.87139e-09
0
-1.69523e-18
-1.34663e-19
1.11426e-10
6.83558e-11
1.49878e-10
-9.08681e-22
-1.94855e-23
-2.90634e-25
-3.05804e-27
1.39161e-29
1.53508e-30
5.55332e-32
1.03358e-33
1.57272e-35
1.8872e-37
2.78549e-39
2.04402e-41
3.42621e-44
2.56083e-46
2.79679e-51
0
0
0
0
0
0
0
0
0
0
0
0
0
0
0
5.00342e-19
-3.32302e-18
3.56797e-32
0.002348
0
0
2.74289e-32
0
0
-4.2814e-05
0
0
0
0
0
0
0
1.18832e-61
2.0639e-59
2.74635e-59
1.74946e-58
0
0
4.26239e-56
7.39371e-56
8.71219e-53
4.50088e-50
3.83888e-49
1.32001e-47
8.25302e-47
-1.95894e-44
5.87898e-43
3.63084e-41
2.91639e-40
-4.40869e-40
4.97372e-38
5.7394e-38
1.8804e-37
2.1547e-36
4.57866e-36
1.80249e-35
6.89686e-35
1.70262e-33
5.34042e-33
1.01517e-32
1.94978e-32
3.35403e-32
5.32968e-32
9.11611e-32
1.58112e-31
1.70426e-31
1.0641e-31
6.27546e-32
3.76755e-32
0
0
0
0
0
0.575623
1.23553e-13
0.404367
0.461938
0.276624
0.321791
0.178189
0.209467
0.108155
0.128597
0.064633
0.0773758
0.0375919
0.0452468
0.0221275
0.0264186
0.0126983
0.0152537
0.00724472
0.00874408
0.00396792
0.00480595
0.00216805
0.00263421
0.00114718
0.00139677
0.000625759
0.000760728
0.000329387
0.000402579
0.000168993
0.000207286
8.99336e-05
0.00010941
4.60207e-05
5.63852e-05
2.37985e-05
2.90868e-05
1.18704e-05
1.45415e-05
6.01294e-06
7.41488e-06
2.92827e-06
3.60503e-06
1.45668e-06
1.79399e-06
7.08326e-07
8.7589e-07
3.47949e-07
4.27696e-07
1.6489e-07
2.03165e-07
7.97273e-08
9.83673e-08
3.79416e-08
4.68913e-08
1.81563e-08
2.24358e-08
8.43589e-09
1.04181e-08
4.04143e-09
5.00091e-09
1.86356e-09
2.31602e-09
8.42374e-10
1.0433e-09
3.98618e-10
4.92477e-10
1.79078e-10
2.22003e-10
8.22674e-11
1.01595e-10
3.69039e-11
4.5652e-11
1.67755e-11
2.08567e-11
7.37521e-12
9.13611e-12
3.30765e-12
4.09105e-12
1.43407e-12
1.78203e-12
6.46594e-13
8.01386e-13
2.81432e-13
3.50572e-13
1.22087e-13
1.51281e-13
5.49319e-14
6.76293e-14
2.39273e-14
2.97469e-14
1.02546e-14
1.27141e-14
4.40851e-15
5.49497e-15
1.8686e-15
2.32769e-15
8.07209e-16
9.99196e-16
3.47459e-16
4.31661e-16
1.46146e-16
1.81507e-16
6.26128e-17
7.75149e-17
2.59577e-17
3.21591e-17
1.11299e-17
1.38609e-17
4.55454e-18
5.64348e-18
1.92148e-18
2.37998e-18
7.79063e-19
9.68943e-19
3.24954e-19
4.02946e-19
1.32479e-19
1.65347e-19
5.29943e-20
6.56711e-20
2.21097e-20
2.72489e-20
8.85605e-21
1.10232e-20
3.51523e-21
4.35349e-21
1.40982e-21
1.74608e-21
5.74573e-22
7.1606e-22
2.30018e-22
2.8527e-22
9.3158e-23
1.15742e-22
3.72114e-23
4.62107e-23
1.54592e-23
1.91398e-23
6.14676e-24
7.60738e-24
2.49331e-24
3.09499e-24
1.00878e-24
1.25002e-24
4.16053e-25
5.16033e-25
1.65208e-25
2.04449e-25
6.72691e-26
8.36985e-26
2.64424e-26
3.29768e-26
1.02855e-26
1.27488e-26
4.07882e-27
5.06393e-27
1.50939e-27
1.87315e-27
5.75492e-28
7.12654e-28
2.07852e-28
2.57437e-28
7.44658e-29
9.27115e-29
2.57769e-29
3.18977e-29
8.81365e-30
1.09601e-29
2.9039e-30
3.60331e-30
1.00868e-30
1.25295e-30
3.58864e-31
4.47687e-31
1.56029e-31
1.92808e-31
8.04328e-32
9.94943e-32
4.77941e-32
5.98645e-32
3.42577e-32
4.30677e-32
-1.25889e-05
-3.2084e-05
-6.38949e-05
-3.09192e-05
0.597608
2.95617e-57
5.61103e-56
0
0
3.0704e-14
2.04363e-14
5.23181e-32
7.01497e-32
4.84943e-32
4.86093e-32
8.31775e-32
0
0
0
0
0
0
0
-4.95422e-21
-3.71371e-21
0.00024098
4.14727e-05
0
0
0
0
0
0
1.33663e-32
3.203e-16
4.88861e-17
7.99588e-45
1.62897e-45
-1.01573e-06
1.26357e-32
1.75155e-13
8.45686e-38
1.72928e-38
4.00948e-12
3.22769e-12
-1.95312e-18
-5.98964e-19
4.68749e-34
9.55969e-35
6.4783e-32
1.35368e-30
3.10992e-31
-5.01221e-19
-2.64512e-20
-1.3272e-22
-2.90555e-24
-4.13303e-26
-2.04134e-28
7.88618e-30
2.36031e-31
5.84294e-33
7.28015e-35
1.91583e-36
1.31861e-38
2.34941e-40
4.46671e-43
1.24154e-45
8.6417e-49
0
0
0
0
0
0
0
0
0
0
0
0
0
0
0
2.37515e-17
0
3.6965e-32
2.82588e-29
2.2363e-38
1.00432e-38
-2.06641e-20
-6.32349e-22
-1.3802e-27
-1.99368e-25
1.63382e-32
0.699662
0
0
0
0.00131926
6.63435e-13
0.654395
3.90897e-57
0
0.555613
0
0
0
7.98792e-64
2.72538e-56
1.1067e-56
0.0491721
9.70991e-56
0.144273
-1.88405e-53
2.55694e-51
2.05919e-49
3.83424e-48
-1.20068e-46
-1.8197e-45
-2.36924e-44
4.05611e-42
6.28e-41
1.24554e-39
6.51306e-38
6.05852e-38
1.04597e-37
1.24643e-36
4.61094e-36
4.73376e-36
4.74555e-36
5.45016e-34
3.8303e-33
7.50255e-33
1.32633e-32
2.52397e-32
4.43498e-32
6.9365e-32
1.20457e-31
1.79947e-31
1.5231e-31
7.2899e-32
4.68828e-32
1.2466e-13
-2.29368e-07
-7.70822e-07
-1.62148e-07
0
-1.08781e-05
-3.69048e-06
0.194289
4.96964e-32
8.21571e-32
1.40158e-31
2.25044e-31
2.07499e-31
1.1965e-31
7.00616e-32
4.40729e-32
2.57e-32
1.33589e-32
7.05991e-33
2.23244e-33
9.02545e-35
2.37673e-35
6.05888e-36
2.83856e-36
2.47169e-37
-5.82817e-40
3.85733e-40
0
0
0
0
1.69213e-43
0
0
0
0
0
0
0
0
0
0
0
6.17492e-32
9.58967e-32
2.0061e-31
2.37377e-31
1.57394e-31
9.11492e-32
5.85459e-32
3.31242e-32
1.73935e-32
9.79105e-33
5.05871e-33
7.15907e-34
6.28901e-36
6.27107e-36
6.05573e-36
1.63707e-36
1.38197e-37
0.0124833
0.00811384
7.99791e-38
1.64078e-39
8.30453e-41
5.32667e-42
-3.12568e-44
-2.39687e-45
-1.58075e-46
6.16556e-30
5.03963e-48
2.69366e-49
3.38749e-51
0
0
0
0
0
0
0
0
0
0
0
0
0
0
0
0
0
0
0
-4.57701e-30
-1.70888e-26
5.96392e-50
1.19158e-39
4.36929e-48
-1.10197e-19
9.15554e-36
-1.53572e-24
2.66154e-32
-8.70349e-23
-1.39713e-23
4.886e-33
9.37554e-37
9.69747e-41
2.21921e-42
1.3556e-50
4.79716e-41
7.74135e-43
-2.57161e-44
1.08752e-46
1.74735e-47
5.06394e-49
1.14742e-52
1.56707e-61
0
0
0
1.04826e-63
-2.4836e-53
7.58097e-38
-3.01529e-06
-1.18122e-19
-7.55358e-06
0.639087
0.634019
0.579533
0.629671
0.570787
0.628341
0.567753
0.627371
0.566869
0.62667
0.56658
0.628835
0.566941
0.628113
0.567976
0.630128
0.567227
0.631692
0.570072
0.632084
0.570342
0.631691
0.570922
0.630962
0.570453
0.631967
0.569439
0.63378
0.570576
0.63242
0.570774
0.632044
0.569073
0.63504
0.570743
0.633687
0.572371
0.632137
0.570453
0.631673
0.570767
0.632043
0.569895
0.633322
0.569913
0.631236
0.569344
0.63033
0.567969
0.630123
0.569274
0.630799
0.5698
0.631016
0.569225
0.629316
0.569277
0.629629
0.567791
0.631549
0.568783
0.633608
0.570308
0.63256
0.570613