/*--------------------------------*- C++ -*----------------------------------*\
  =========                 |
  \\      /  F ield         | OpenFOAM: The Open Source CFD Toolbox
   \\    /   O peration     | Website:  https://openfoam.org
    \\  /    A nd           | Version:  7
     \\/     M anipulation  |
\*---------------------------------------------------------------------------*/
FoamFile
{
    version     2.0;
    format      ascii;
    class       volScalarField;
    location    "0.42";
    object      T;
}
// * * * * * * * * * * * * * * * * * * * * * * * * * * * * * * * * * * * * * //

dimensions      [0 0 0 1 0 0 0];

internalField   nonuniform List<scalar> 
45544
(
0
0
0
0
0
0
0
0
0
0
0
0
0
0
0
0
0
0
0
0
0
0
0
0
0
0
0
0
0
0
0
0
0
0
0
0
0
0
0
0
0
0
0
0
0
0
0
0
0
0
0
0
0
0
0
0
0
0
0
0
0
0
0
0
0
0
0
0
0
0
0
0
0
0
0
0
0
0
0
0
0
0
0
0
0
0
0
0
0
0
0
0
0
0
0
0
0
0
0
0
0
0
0
0
0
0
0
0
0
0
0
0
0
0
0
0
0
0
0
0
0
0
0
0
0
0
0
0
0
0
0
0
0
0
0
0
0
0
0
0
0
0
0
0
0
0
0
0
0
0
0
0
0
0
0
0
0
0
0
0
0
0
0
0
0
0
0
0
0
0
0
0
0
0
0
0
0
0
0
0
0
0
0
0
0
0
0
0
0
0
0
0
0
0
0
0
0
0
0
0
0
0
0
0
0
0
0
3.53304e-47
-2.27498e-35
6.25967e-34
-8.55232e-31
-2.32081e-30
-3.21254e-28
-1.50767e-27
3.6299e-28
6.14689e-27
5.92198e-27
5.54456e-27
4.10236e-27
3.79663e-27
6.85773e-27
-4.48734e-27
6.67769e-27
6.54621e-27
-5.89414e-25
3.20522e-24
7.54998e-24
6.13099e-24
9.42595e-24
7.70089e-24
4.51895e-24
-2.72696e-23
-2.11183e-23
-3.77046e-23
-4.85484e-23
-5.77181e-25
-6.1097e-23
-3.79814e-23
-1.10343e-22
-6.06039e-23
5.25288e-23
1.68037e-22
2.5013e-22
1.50891e-22
1.05815e-22
9.81779e-24
8.07467e-24
-2.25832e-23
-6.18526e-23
-7.87494e-23
-8.68625e-23
-6.14362e-23
-5.71409e-23
-2.85316e-23
-2.19245e-23
-1.31601e-23
-1.66935e-24
1.94438e-24
3.3649e-24
4.74361e-24
3.9353e-24
3.26621e-24
2.30432e-24
1.57983e-24
6.56506e-25
4.2823e-25
2.46261e-25
-1.3665e-27
-1.06203e-26
-4.21938e-26
-3.23761e-26
-2.81981e-26
-1.90557e-26
-1.29954e-26
-8.63799e-27
-4.30019e-27
-2.33274e-27
-1.36014e-27
-7.15067e-28
-2.95264e-28
1.02324e-29
1.61458e-29
3.02355e-29
3.1907e-29
2.1462e-29
1.56041e-29
9.26668e-30
5.49613e-30
3.13735e-30
1.74353e-30
8.46113e-31
4.62985e-31
2.48152e-31
1.35917e-31
6.6067e-32
2.94232e-32
4.11113e-33
-4.46453e-32
6.52506e-29
0
0
0
0
0
0
0
0
0
0
0
0
0
0
0
0
0
0
0
0
0
0
0
0
0
0
0
0
0
0
0
0
0
0
0
0
0
0
0
0
0
0
0
0
0
0
0
0
0
0
0
0
0
0
0
0
0
0
0
0
0
0
0
0
0
0
0
0
0
0
0
0
0
0
0
0
0
0
0
0
-2.98147e-122
-3.72684e-122
-4.91208e-121
1.61767e-120
1.69579e-119
5.48175e-119
-3.31068e-117
1.1651e-116
2.70093e-115
3.65122e-115
2.71514e-115
3.5915e-115
1.63401e-115
2.57181e-115
-3.74638e-114
2.39046e-115
-6.28752e-112
-7.04421e-112
-3.72923e-112
-3.84379e-112
-3.35672e-111
1.07246e-110
-4.20845e-110
-3.05556e-110
-5.06116e-110
-4.8161e-110
-6.18941e-110
-4.62278e-110
-5.59252e-110
-1.84979e-111
-2.74712e-109
-2.96539e-109
-4.52009e-109
-4.2495e-109
-3.09022e-109
-2.84532e-109
-1.59665e-108
1.43763e-109
-2.18302e-106
-1.98969e-106
-1.86646e-106
5.20164e-107
-1.26525e-106
1.37557e-106
4.52595e-104
7.64032e-104
-7.94125e-102
3.26449e-101
-6.5047e-100
-8.20389e-101
-3.96233e-99
8.76755e-100
-8.996e-97
-8.56146e-97
-2.55825e-96
-2.96121e-96
-1.6423e-96
-1.8812e-96
-2.43535e-96
3.46192e-96
-2.77706e-95
-2.68269e-95
-4.24538e-95
-4.31308e-95
-2.03795e-94
-1.76679e-94
-5.65101e-93
7.3849e-94
-1.04706e-90
-1.17202e-90
-6.78155e-91
-7.55633e-91
-5.44731e-91
-3.27638e-92
-2.70241e-90
-2.84589e-90
-6.58582e-90
-8.23343e-90
5.7759e-88
-5.19889e-88
5.47756e-86
6.00228e-86
5.03032e-86
7.67963e-86
-3.5937e-85
1.36837e-84
-2.45045e-84
8.19465e-85
-3.28948e-84
-7.61624e-85
-5.64594e-84
2.91259e-84
-8.68837e-84
9.36155e-84
-3.20282e-83
-2.63891e-83
-3.60979e-83
3.19416e-83
-6.42538e-83
-1.01249e-83
-4.87258e-83
-1.10061e-83
-3.84785e-83
-3.4129e-84
-5.26944e-83
8.19087e-83
-2.80902e-82
-2.50439e-83
-1.48736e-81
-1.23434e-81
-3.81934e-81
-2.84603e-81
-2.74408e-81
-2.00875e-81
-1.96172e-81
-1.31937e-81
-3.95391e-81
-1.47354e-81
-6.84605e-81
-5.90805e-81
-4.44701e-81
-3.28227e-81
-8.65373e-81
1.58722e-80
-3.32843e-80
3.20991e-82
-3.30926e-80
1.21755e-80
-3.12981e-80
1.05974e-80
-3.5182e-80
3.23362e-80
-2.11928e-79
-8.62056e-80
-9.67702e-79
3.17487e-80
-7.75844e-79
-2.91199e-80
-6.26962e-79
-5.8311e-80
-5.06862e-79
-3.54059e-80
-1.81318e-78
-1.88386e-79
-3.35696e-78
-2.55602e-78
-2.3031e-78
-1.60968e-78
-1.96658e-78
-3.10359e-80
-3.07825e-78
-8.52752e-79
-3.2126e-78
-1.73856e-78
-3.47006e-78
-9.61711e-79
-3.29026e-78
1.32253e-78
-4.17256e-78
-1.91119e-79
-6.93553e-78
3.534e-78
-5.92611e-78
9.65407e-79
-7.30578e-78
-3.69794e-78
-5.37138e-78
-2.97655e-78
-4.08838e-78
-1.71218e-78
-8.53175e-78
-7.08168e-78
-5.69116e-78
-4.35307e-78
-5.1124e-78
9.09597e-79
-7.35221e-78
-2.66886e-79
-7.50339e-78
-2.48648e-78
-7.46582e-78
-1.14371e-78
-7.09112e-78
3.19261e-78
-7.5362e-78
1.79083e-78
-8.30518e-78
6.32812e-78
-8.86369e-78
8.92634e-79
-7.99469e-78
-1.29626e-78
-6.45662e-78
-5.18544e-79
-5.79643e-78
-1.56294e-78
-5.25869e-78
-2.1996e-78
-5.16085e-78
2.67496e-78
-8.19632e-78
-3.69064e-78
-6.59813e-78
-1.3443e-78
-5.07707e-78
-1.28881e-78
-7.22311e-78
-6.33338e-79
-9.62747e-78
-5.98634e-78
-6.71822e-78
-3.86749e-78
-5.18432e-78
-1.72684e-78
-4.83576e-78
-2.39765e-78
-4.33988e-78
-2.28039e-78
-4.25236e-78
-1.72123e-78
-3.38551e-78
-5.49989e-79
-2.53038e-78
-6.23014e-79
-1.97448e-78
-2.49054e-79
-1.54842e-78
-3.56161e-79
-1.91866e-78
-9.97298e-79
-1.38155e-78
-7.68731e-79
-1.60619e-78
-6.03885e-79
-1.91532e-78
-1.37519e-78
-1.30104e-78
-8.65128e-79
-9.78769e-79
-3.71063e-79
-9.31456e-79
-3.4172e-79
-7.91873e-79
-3.999e-79
-6.16899e-79
-2.48286e-79
-4.99473e-79
-1.42575e-79
-4.61079e-79
-2.16368e-79
-3.3319e-79
-1.37739e-79
-2.57401e-79
-7.38335e-80
-1.99547e-79
-6.57117e-80
-1.49765e-79
-4.94964e-80
-1.17501e-79
-1.45031e-80
-4.70608e-80
6.63304e-80
-3.98557e-80
4.96526e-80
-4.44647e-80
4.18454e-80
-1.47079e-80
6.85833e-80
-7.35302e-81
5.73664e-80
-8.93e-81
4.15037e-80
-1.58962e-80
2.1935e-80
1.45535e-81
2.83941e-80
-3.58595e-81
1.79835e-80
1.54654e-81
1.89891e-80
-5.67931e-82
1.22299e-80
-2.21138e-81
6.17492e-81
-2.29504e-81
3.57404e-81
-7.14443e-82
3.61351e-81
-4.12682e-81
5.29581e-81
9.49041e-78
2.1151e-78
-1.20007e-73
-4.11784e-74
-1.10921e-71
-2.65848e-73
3.32434e-70
1.07676e-69
3.78226e-70
6.38344e-70
2.80181e-70
7.06462e-71
1.13258e-68
-9.02241e-70
4.6666e-66
-1.40103e-66
2.49036e-64
-4.2563e-64
-1.21887e-62
-1.0053e-62
-5.51219e-63
2.10382e-61
-8.98667e-61
3.6428e-60
-1.05057e-58
3.38398e-60
4.25761e-56
-1.56779e-27
-2.62926e-25
3.12581e-23
-1.90247e-21
-3.94624e-20
1.29677e-18
3.68344e-17
3.28351e-16
1.41564e-15
3.76437e-15
6.59666e-15
8.89366e-15
1.01851e-14
1.07717e-14
1.11086e-14
1.14751e-14
1.19184e-14
1.18331e-14
1.05825e-14
8.27732e-15
5.65414e-15
3.38787e-15
1.75901e-15
8.19656e-16
3.32711e-16
1.19932e-16
3.93292e-17
1.05921e-17
2.19043e-18
3.15172e-19
2.40415e-20
3.24484e-22
-8.32728e-23
-2.08838e-24
2.05631e-25
-1.5164e-28
-2.61863e-28
8.33401e-30
-1.35188e-31
2.14701e-33
-5.2268e-35
1.47168e-36
-3.5602e-38
4.88776e-40
5.37967e-42
-1.77916e-43
-9.96061e-46
-8.02161e-49
-2.28603e-52
-5.3417e-07
-7.13137e-07
-1.38737e-06
9.00341e-07
9.37382e-07
-1.6293e-06
-2.37981e-07
-1.74836e-06
-1.60981e-06
-1.14358e-07
-7.78241e-07
2.14617e-06
9.0423e-07
2.19612e-06
2.72053e-06
-1.76924e-06
7.65406e-07
-6.55888e-06
-3.14142e-06
-1.02736e-05
-8.11105e-06
-6.04751e-06
-9.06394e-06
3.73952e-06
-4.26514e-06
1.57329e-05
3.88838e-06
2.10708e-05
1.14017e-05
9.59118e-06
5.08245e-06
-2.48e-05
-2.99478e-05
-8.30725e-05
-0.000105552
-0.000188948
-0.000197389
-0.000256909
-0.000292359
-2.01514e-05
-0.000474215
-0.000281826
-0.000532291
-0.000828686
-0.000233716
-0.000527418
-0.000297797
-0.000369775
-0.000685261
-0.000701222
-0.000579979
-0.000866157
-0.000105839
-0.000495355
-0.000152052
-0.000226662
-0.000294534
-0.000377003
-0.000288012
-0.000460956
-0.000316139
-0.000458157
-0.000343635
-0.000488107
-0.000242626
-0.000448734
-0.000205566
-0.000360453
-0.000275788
-0.000376646
-0.000477254
-0.000558286
-0.000412154
-0.000605836
-0.000310029
-0.000569639
-0.000310153
-0.000474761
-3.48094e-07
4.63586e-07
-9.04494e-07
1.94356e-06
-2.02858e-06
-5.70722e-06
1.0817e-05
1.06228e-05
-8.61302e-05
-0.000331246
6.00582e-07
-5.90483e-07
-3.97988e-07
-3.76582e-07
-4.01728e-07
-4.06729e-07
-4.05923e-07
-2.13427e-07
-9.45678e-07
4.67827e-07
1.21301e-29
0
0
0
0
0
0
0
0
9.93832e-38
-8.70185e-35
-1.15994e-32
-6.28334e-31
-1.46715e-28
-3.53571e-28
6.63505e-28
1.19012e-27
4.51097e-27
4.43868e-27
1.69539e-27
7.46296e-27
5.44386e-27
9.00593e-27
-6.35457e-27
-5.77429e-26
4.50009e-26
1.28264e-24
7.23894e-25
8.02837e-24
-3.80822e-25
1.07683e-24
-7.17829e-25
-8.59052e-24
-1.08941e-23
-2.96307e-24
-5.45932e-24
-3.94991e-23
-4.76988e-23
-8.27479e-23
-4.94818e-23
-1.0315e-22
2.78016e-23
1.37537e-22
1.94369e-22
2.563e-22
1.80253e-22
1.11336e-22
8.55257e-24
1.53539e-23
-3.02451e-23
-5.70482e-23
-7.46792e-23
-9.67164e-23
-5.60682e-23
-5.69547e-23
-2.11601e-23
-2.11264e-23
-9.88984e-24
-1.42769e-24
1.96675e-24
4.20508e-24
4.16448e-24
3.49218e-24
2.74406e-24
1.76544e-24
1.3318e-24
5.66263e-25
3.20366e-25
1.64048e-25
-1.18484e-26
-1.53535e-26
-3.96235e-26
-3.20983e-26
-2.37476e-26
-1.66449e-26
-1.02931e-26
-6.98978e-27
-3.03753e-27
-1.83034e-27
-9.52832e-28
-4.17054e-28
-1.97694e-28
6.5364e-30
3.36473e-29
2.72666e-29
2.47811e-29
1.72832e-29
1.19978e-29
7.04546e-30
4.23596e-30
2.42863e-30
1.31626e-30
6.35059e-31
3.32049e-31
1.86173e-31
9.21286e-32
3.96873e-32
1.98549e-32
9.6002e-33
0
-2.38411e-30
0
-1.75746e-27
3.38375e-26
5.32454e-56
5.6491e-26
-2.03648e-24
8.15185e-23
-1.32083e-20
6.24643e-20
8.63844e-18
1.17575e-16
7.4303e-16
2.41586e-15
5.16089e-15
7.85782e-15
9.62638e-15
1.05477e-14
1.09519e-14
1.1254e-14
1.1726e-14
1.19672e-14
1.13614e-14
9.50903e-15
6.96962e-15
4.46105e-15
2.50706e-15
1.22604e-15
5.30356e-16
2.03733e-16
7.02541e-17
2.11221e-17
5.09031e-18
8.78019e-19
1.01744e-19
4.4179e-21
-1.66778e-22
-2.02146e-23
3.48687e-25
3.77653e-26
-1.4333e-27
3.76728e-30
9.79712e-31
-2.85628e-32
5.04428e-34
-1.09854e-35
1.40655e-37
2.09783e-39
-1.12422e-40
8.19356e-43
1.88054e-44
3.69984e-47
1.16088e-50
-3.14086e-07
1.47292e-54
-0.000330082
-0.000181973
-0.000362398
8.98384e-07
-1.03441e-06
6.6174e-07
7.17863e-07
-6.09756e-06
-3.687e-07
1.87351e-05
-2.37821e-05
-0.000198773
1.51246e-07
-0.000420122
-8.5136e-08
-5.41497e-07
-4.24631e-07
-4.11257e-07
-4.02013e-07
-3.95941e-07
-5.21511e-07
-4.91687e-07
-1.69005e-07
1.74477e-07
0
0
0
0
0
0
0
1.65774e-39
-9.32569e-35
3.0647e-31
-1.75148e-30
-4.73409e-29
7.12602e-28
-3.22864e-27
-1.26722e-26
-4.91173e-27
-3.40248e-27
-1.12664e-26
-1.14988e-26
-1.18115e-26
1.34687e-27
3.32616e-26
6.10004e-26
1.11017e-24
-7.17946e-24
-7.69533e-24
-4.03251e-24
-1.9263e-23
2.08802e-24
8.90518e-24
7.72689e-23
2.06688e-23
7.57859e-23
9.25595e-23
-1.58312e-23
1.42863e-22
2.33095e-22
3.19342e-22
-2.29017e-23
-2.37957e-22
-3.01123e-22
-4.1534e-22
-8.9283e-23
-1.3795e-22
-1.33841e-22
-9.7858e-25
-3.40457e-23
8.25738e-23
6.28033e-23
6.60946e-23
3.69703e-23
6.15817e-23
2.84234e-23
3.4677e-23
1.20961e-23
-1.85875e-24
1.57795e-24
1.47978e-25
-2.89599e-24
-1.5611e-24
-1.24674e-24
-7.84465e-25
-5.20061e-25
2.14916e-25
-1.80898e-25
-1.35839e-25
1.22465e-25
-4.89144e-26
-5.01117e-27
-1.00319e-26
-3.93895e-28
-1.95848e-27
-1.12107e-27
-8.13975e-29
-1.69145e-27
4.85461e-28
-2.67099e-28
-2.31873e-28
2.17374e-30
-1.12473e-28
7.57877e-29
6.07305e-29
1.65099e-29
2.17048e-29
1.0774e-29
8.50795e-30
4.89304e-30
2.06485e-30
1.28281e-30
6.3881e-31
2.44533e-31
1.20627e-31
7.57599e-32
3.37236e-32
1.03558e-32
1.4122e-32
-4.03324e-33
6.28433e-31
7.33044e-23
-4.67157e-21
-5.76126e-20
3.17598e-18
6.96376e-17
5.61907e-16
2.16075e-15
5.24515e-15
8.56027e-15
1.09408e-14
1.22083e-14
1.27877e-14
1.31112e-14
1.36511e-14
1.4068e-14
1.37385e-14
1.18557e-14
8.94564e-15
5.89228e-15
3.4149e-15
1.70769e-15
7.65927e-16
2.9842e-16
1.04329e-16
3.26164e-17
8.25171e-18
1.52284e-18
1.90261e-19
9.80882e-21
-2.0118e-22
-4.20333e-23
2.94045e-25
8.95974e-26
-2.48285e-27
-1.67707e-29
2.55582e-30
-6.82063e-32
1.24286e-33
-2.67968e-35
4.01792e-37
2.52496e-39
-2.36487e-40
2.32388e-42
4.01283e-44
7.50611e-47
2.33084e-50
3.24845e-54
4.10048e-07
-2.99323e-07
-2.59904e-07
2.07772e-06
-3.26522e-06
-3.5545e-06
1.63967e-05
1.47503e-05
-0.000104037
-0.000317207
-3.24869e-07
-1.07084e-07
-3.52813e-08
-7.50974e-08
-5.20004e-08
-4.85698e-08
-4.41887e-08
8.24757e-08
-5.4429e-07
2.6808e-07
0
0
0
0
0
0
0
-3.1432e-35
-2.02578e-33
-2.84143e-30
6.49443e-30
2.55064e-27
4.35467e-27
-9.02234e-27
-1.21015e-26
-1.00115e-26
-8.94533e-27
-6.98547e-27
-2.12896e-26
-9.52889e-27
8.68227e-27
-2.27693e-26
-2.03359e-25
-2.73434e-24
-6.40059e-24
-2.33561e-23
-1.43067e-23
-4.64204e-23
-3.67053e-23
1.25837e-23
-1.79322e-23
-3.93811e-24
1.16097e-23
6.41555e-23
2.8876e-22
6.56797e-23
2.15293e-22
1.48882e-22
-3.98819e-23
-3.23101e-22
-2.96875e-22
-2.00121e-22
-2.39733e-22
-8.07507e-23
4.35219e-23
-1.27583e-23
8.61223e-23
8.7014e-23
9.53349e-23
6.62382e-23
6.19075e-23
3.74745e-23
2.80772e-23
2.82119e-23
-2.1808e-24
5.71546e-24
1.80922e-26
-3.96971e-24
-1.35802e-24
-1.2428e-24
-8.18931e-25
-5.80235e-25
-1.07645e-26
-2.74269e-25
-1.68246e-25
6.629e-26
-5.42543e-26
-2.84142e-26
-9.11877e-27
-3.88235e-27
-4.52852e-27
-1.40228e-27
-8.89953e-28
-1.73255e-27
-7.02976e-29
-3.09171e-28
-4.55689e-28
-1.83174e-28
-8.72653e-29
1.05764e-28
4.13705e-29
2.17074e-29
2.7631e-29
1.34235e-29
1.16763e-29
6.67711e-30
3.0691e-30
1.6881e-30
8.51486e-31
3.09882e-31
1.70644e-31
9.36046e-32
5.57426e-32
2.50779e-32
1.37661e-32
-2.47309e-33
-8.80017e-32
2.59215e-19
1.83724e-17
2.13225e-16
1.18758e-15
3.55664e-15
6.95344e-15
9.94053e-15
1.1705e-14
1.26169e-14
1.29347e-14
1.33529e-14
1.38893e-14
1.40313e-14
1.29863e-14
1.04779e-14
7.3639e-15
4.5704e-15
2.44336e-15
1.16259e-15
4.81323e-16
1.78365e-16
6.01683e-17
1.69687e-17
3.66007e-18
5.67459e-19
4.85552e-20
1.15984e-21
-1.51647e-22
-5.92612e-24
3.74154e-25
3.7752e-27
-6.05441e-28
1.56943e-29
-1.9901e-31
2.66039e-33
-7.57629e-35
2.67534e-36
-7.83197e-38
1.31398e-39
7.93795e-42
-4.2188e-43
-2.11105e-45
-1.55191e-48
-5.15246e-52
1.85614e-55
9.02595e-07
-7.46939e-07
1.90357e-06
1.04732e-06
-4.2559e-06
6.45002e-06
2.39539e-05
-2.79346e-05
-0.000204291
-0.000381236
-2.49001e-07
1.27532e-08
-6.30852e-08
-6.23021e-08
-4.70232e-08
-4.81656e-08
-1.73574e-07
-8.0895e-08
-9.58316e-08
5.36452e-08
0
-6.4619e-25
-2.69638e-20
2.81905e-23
-2.71903e-24
3.6391e-07
0
0
0
0
0
0
0
0
0
0
0
0
0
0
0
0
0
0
0
0
0
0
0
0
0
0
0
0
0
0
0
0
0
0
0
0
0
0
0
0
0
0
0
0
0
0
0
0
0
0
0
0
0
0
0
0
0
0
0
0
0
0
0
0
0
0
0
0
0
0
0
0
0
0
0
0
0
0
0
0
0
0
0
0
0
0
0
0
0
0
0
0
0
0
0
0
0
0
0
0
0
0
0
0
0
0
0
0
0
0
0
0
0
0
0
0
0
0
0
0
0
0
0
0
0
0
0
0
0
0
0
0
0
0
0
0
0
0
0
0
0
0
0
0
0
0
0
0
0
0
0
0
0
0
0
0
0
0
0
0
0
0
0
0
0
0
0
0
0
0
0
0
0
0
0
0
0
0
0
0
0
0
0
0
0
0
0
0
0
0
0
0
0
0
0
0
-7.57592e-25
6.1842e-26
1.12345e-25
8.49187e-23
0
0
0
0
0
6.03119e-36
-1.03987e-32
3.21609e-29
-4.3345e-28
-1.25234e-26
-1.40409e-26
-3.05727e-26
-4.92251e-26
3.38565e-26
3.98999e-26
-1.17685e-25
-1.19939e-25
-2.48297e-25
-5.70923e-25
-3.42193e-25
5.32643e-24
-1.39198e-24
-1.42383e-22
-3.8655e-23
-1.09483e-22
2.31387e-22
3.53256e-22
4.38184e-22
7.62658e-22
1.45287e-22
-2.69938e-22
-2.85859e-22
7.34908e-22
2.35423e-21
1.32987e-21
3.17892e-21
3.8111e-21
2.60606e-21
2.43799e-21
-2.98774e-23
-2.72753e-21
-3.94094e-21
-5.10424e-21
-4.01033e-21
-4.79916e-21
-3.26906e-21
-2.92661e-21
-1.4951e-21
1.93387e-22
3.9153e-22
6.53308e-22
7.77866e-22
7.41551e-22
5.45846e-22
4.42486e-22
2.96716e-22
1.02647e-22
4.80836e-23
2.11792e-23
-4.89086e-24
-1.16479e-23
-1.53417e-23
-1.38717e-23
-1.09742e-23
-5.66278e-24
-4.04446e-24
-2.41623e-24
-9.87812e-25
-3.21249e-25
-1.46028e-25
-3.47225e-26
3.22488e-26
6.33365e-26
5.01724e-26
3.88494e-26
2.47424e-26
1.50005e-26
8.22955e-27
5.10963e-27
2.85789e-27
1.21473e-27
7.36555e-28
3.20051e-28
1.68187e-28
9.49871e-29
1.26822e-29
5.93486e-30
-1.82376e-30
-5.44499e-30
-2.77654e-30
-2.41651e-30
-1.30743e-30
-8.08349e-31
-5.03189e-31
-3.03694e-31
9.59464e-30
3.31849e-19
0
2.90483e-29
0
0
0
0
0
0
0
0
0
0
0
0
0
0
0
0
0
0
0
0
0
0
0
0
0
0
0
0
0
0
0
0
0
0
0
0
0
0
0
0
0
0
0
0
0
0
0
0
0
0
0
0
0
0
0
0
0
0
0
0
0
0
0
0
0
0
0
0
0
0
0
0
0
0
0
0
0
0
0
0
-4.14563e-120
0
4.86687e-118
6.50278e-118
-2.55065e-116
4.83703e-118
8.10867e-115
2.04858e-114
2.01746e-113
2.60217e-113
1.25611e-113
1.83303e-113
-7.30732e-114
7.49339e-113
5.1458e-113
2.61185e-112
-2.67918e-110
-2.65195e-110
-4.74174e-110
1.15762e-111
-3.85092e-108
-3.8117e-108
-6.02093e-108
-5.97507e-108
-4.14463e-108
-3.73283e-108
-8.26296e-108
-3.35553e-108
-1.72078e-107
-1.6785e-107
-1.17338e-107
-1.35073e-107
-2.12397e-107
-1.67068e-107
-1.72377e-107
-3.51154e-108
-1.11256e-106
-1.76934e-106
-1.81754e-104
-2.18485e-104
-6.6607e-104
2.44013e-103
-8.51859e-104
1.2687e-103
-8.23345e-101
-3.59594e-102
-1.89559e-98
-2.28405e-98
-4.076e-97
1.80755e-96
-1.07911e-96
1.06932e-96
-1.1989e-94
-1.31042e-94
-1.1672e-94
-1.18781e-94
-9.0829e-95
-7.18506e-95
-2.82547e-93
-2.92035e-93
-3.69325e-93
-3.88307e-93
-5.23494e-93
6.20512e-93
-2.99674e-92
-2.66773e-92
-5.64563e-91
-3.24871e-91
-5.54317e-89
-5.35423e-89
-4.61822e-89
-3.04225e-90
-2.92421e-88
-1.53687e-88
-2.61319e-88
9.65672e-89
1.41476e-88
9.27736e-88
4.59407e-86
-1.20923e-86
2.24459e-84
2.44753e-84
-2.63082e-84
1.11328e-83
-1.05721e-82
3.54875e-84
-2.45043e-82
-4.89015e-83
-2.45654e-82
1.5904e-82
-7.62803e-82
9.33821e-82
-1.47659e-81
-2.04511e-82
-1.27751e-81
9.57436e-83
-5.82984e-81
-2.83334e-81
-5.63792e-81
-3.39961e-81
-3.96336e-81
-2.66719e-81
-4.1456e-81
4.44506e-81
-1.34067e-80
-1.90142e-81
-2.88849e-80
-4.91164e-81
-5.8509e-80
-3.29532e-80
-1.73987e-79
-3.15623e-80
-1.29244e-79
-2.10199e-80
-1.05877e-79
-1.48098e-80
-3.02725e-79
-1.9075e-79
-2.52129e-79
-1.03368e-79
-2.40204e-79
4.78604e-80
-2.07983e-78
1.77864e-81
-3.46266e-78
-3.63502e-79
-4.35652e-78
3.93917e-78
-4.21074e-78
3.30638e-78
-6.01848e-78
-1.50189e-79
-1.45229e-77
2.20633e-77
-8.85523e-77
-4.6732e-77
-6.74143e-77
-1.13104e-77
-5.31977e-77
-3.28083e-78
-4.41683e-77
4.42899e-79
-1.43088e-76
-8.36867e-77
-1.22096e-76
-6.45748e-77
-9.25873e-77
-4.40037e-77
-1.6478e-76
-6.92049e-77
-2.08421e-76
-1.20423e-76
-1.61971e-76
-4.81146e-77
-2.31903e-76
5.49517e-77
-3.5183e-76
-1.69232e-76
-3.40381e-76
4.02275e-77
-7.57092e-76
-6.37464e-76
-5.1999e-76
-3.60505e-76
-3.56717e-76
-2.4001e-76
-2.46821e-76
-1.42746e-76
-2.13332e-76
-1.36792e-76
-2.48731e-76
-1.78592e-76
-1.86353e-76
-9.18382e-77
-3.72325e-76
-1.08734e-76
-4.45207e-76
-1.45222e-76
-3.51464e-76
-7.28263e-77
-3.92027e-76
9.17312e-77
-5.15054e-76
-1.55637e-76
-4.97691e-76
1.25991e-76
-6.4528e-76
-2.9649e-76
-4.84231e-76
-1.50707e-76
-3.66277e-76
-6.88993e-77
-3.19237e-76
-2.35908e-77
-2.50186e-76
1.81549e-78
-2.09324e-76
3.23231e-77
-3.62533e-76
-1.46969e-76
-2.91748e-76
-7.66391e-78
-2.94957e-76
-8.52743e-77
-2.29501e-76
-4.18326e-77
-3.47003e-76
-1.44187e-76
-2.72804e-76
-1.15942e-76
-2.01913e-76
-9.6287e-77
-2.06252e-76
-8.65757e-77
-1.67251e-76
-6.33891e-77
-1.48856e-76
2.25169e-77
-1.6223e-76
-5.77077e-77
-1.59211e-76
-1.01172e-76
-1.13334e-76
-6.95751e-77
-9.91805e-77
-7.10452e-77
-7.1781e-77
-4.16547e-77
-6.8654e-77
-4.80647e-77
-4.74136e-77
-2.8105e-77
-6.31377e-77
-3.58623e-77
-4.92784e-77
-2.42027e-77
-3.63264e-77
-1.71814e-77
-3.45086e-77
-1.21685e-77
-3.10927e-77
-1.21368e-77
-2.32737e-77
-8.28566e-78
-1.71976e-77
-8.55498e-79
-1.10405e-77
9.88502e-79
-7.3714e-78
2.91927e-78
-5.87366e-78
2.12124e-78
-2.75757e-78
4.01001e-78
-2.55977e-78
2.73772e-78
-2.27322e-78
1.72974e-78
-7.31463e-79
2.75041e-78
1.35873e-78
5.00496e-78
4.34926e-79
3.24277e-78
4.64299e-78
7.49743e-78
4.43747e-78
7.2638e-78
2.34547e-78
4.37033e-78
1.53447e-78
2.88651e-78
1.38957e-78
2.5648e-78
7.19655e-79
1.48856e-78
1.04653e-78
1.6248e-78
8.93216e-79
1.36592e-78
4.88466e-79
8.0149e-79
3.25144e-79
5.60181e-79
2.11986e-79
3.78744e-79
1.136e-79
2.07662e-79
-7.40275e-80
-6.0998e-80
-7.83754e-76
-3.83655e-77
-5.92953e-72
4.20111e-74
-1.46945e-69
-1.56425e-70
6.55027e-68
1.24309e-67
1.46735e-68
1.99696e-67
-3.26562e-68
1.38233e-67
1.19835e-66
7.9785e-67
-3.35929e-65
3.11361e-65
-1.09852e-62
-9.80003e-63
3.40702e-61
1.04655e-60
-2.50631e-59
-2.06042e-59
6.44343e-57
8.14006e-57
3.80419e-57
1.67225e-55
5.56109e-57
-3.17752e-20
9.1387e-08
3.01587e-07
1.4349e-07
-5.65488e-21
-1.35068e-20
-2.61163e-24
-1.73969e-24
-1.40131e-24
-6.42539e-20
-6.06848e-20
-7.0427e-20
-5.5442e-24
-4.07249e-22
2.18824e-17
2.52719e-16
1.39882e-15
4.18455e-15
8.18019e-15
1.16884e-14
1.37617e-14
1.48562e-14
1.51933e-14
1.57093e-14
1.63171e-14
1.64852e-14
1.52566e-14
1.22903e-14
8.63643e-15
5.36363e-15
2.87059e-15
1.36408e-15
5.64935e-16
2.09127e-16
7.03424e-17
1.98421e-17
4.30218e-18
6.6767e-19
5.76129e-20
1.41343e-21
-1.75703e-22
-7.18413e-24
4.31396e-25
5.03784e-27
-7.12323e-28
1.79436e-29
-2.10299e-31
2.60955e-33
-7.9098e-35
2.96385e-36
-8.77205e-38
1.49541e-39
8.44921e-42
-4.70929e-43
-2.31404e-45
-1.66071e-48
-5.22073e-52
2.70101e-54
4.51385e-54
4.25062e-55
8.59856e-08
1.78833e-07
-0.000173748
1.58989e-06
6.1059e-07
1.29986e-06
7.29951e-08
4.68956e-07
-1.99049e-07
1.77264e-07
-3.91974e-07
8.52554e-08
2.27973e-07
6.71028e-07
-3.12374e-07
1.28701e-06
-7.01191e-07
1.53675e-06
-2.49789e-06
1.29206e-06
-2.46876e-06
4.38642e-07
3.08746e-07
2.8053e-06
4.57331e-06
7.47908e-06
8.29091e-06
1.498e-05
3.56024e-06
2.19011e-05
-1.85339e-05
2.1961e-05
-6.14544e-05
6.37181e-06
-0.000113024
-3.43831e-05
-0.000163672
-0.000115667
-0.000241895
-0.000219412
3.38795e-05
-0.000407808
0.000164494
3.83794e-05
-0.000188738
-0.000187866
-0.000417867
-0.000550549
7.99331e-05
-0.000363631
0.000398457
0.000139481
0.000129173
0.000140998
3.73887e-05
-9.14398e-05
0.000121763
-7.1376e-05
7.09995e-05
-5.81508e-05
8.1429e-05
-8.92376e-05
0.000207012
-1.51622e-05
0.000255669
0.00010321
-9.22035e-05
-9.7142e-05
-0.000115585
-0.000250621
4.4204e-07
-0.000265474
-1.79476e-05
-0.00019838
-0.000220984
0
-5.68065e-08
3.70791e-07
4.64781e-07
-6.95191e-07
3.59211e-06
1.02961e-05
-2.28711e-05
-0.000130502
-0.000302019
-1.17605e-07
-3.23696e-09
-1.9563e-07
-9.56469e-08
1.32074e-07
2.66981e-07
1.9043e-07
1.99214e-07
2.11907e-07
1.99058e-07
1.4637e-07
4.76295e-07
-1.81147e-07
1.50036e-07
0
0
0
-1.09115e-06
4.10362e-07
-8.31069e-07
0.000133601
-0.000243973
-6.20434e-05
-2.17622e-07
-7.80603e-08
-0.000182745
-0.000208484
-5.39189e-08
1.18319e-08
2.68009e-29
0
0
-2.12535e-27
1.86817e-22
0
-1.83477e-27
0
0
0
0
-8.2599e-47
-1.35718e-33
-1.03244e-30
-1.52941e-28
-2.46564e-30
2.00076e-26
-1.83566e-27
-6.29336e-26
-1.08345e-25
-4.40628e-26
-9.0242e-26
-1.05205e-25
-2.13733e-25
-3.81525e-25
-5.46326e-25
-1.04232e-24
1.05784e-23
-8.44239e-24
-6.54687e-23
-2.98342e-22
-1.43331e-22
-2.85117e-22
-1.62927e-22
-5.73276e-23
8.45568e-22
1.92091e-22
8.02324e-22
1.31242e-21
1.85538e-21
2.02934e-21
2.64831e-21
4.62058e-21
3.145e-21
3.28471e-21
1.19989e-21
-2.49716e-21
-3.52766e-21
-3.92866e-21
-3.41378e-21
-4.32417e-21
-2.81424e-21
-2.32397e-21
-1.56079e-21
-3.26388e-22
3.24861e-22
6.54048e-22
7.67601e-22
8.16778e-22
5.57903e-22
5.06978e-22
3.22165e-22
1.46204e-22
5.84239e-23
3.1731e-23
-4.18814e-24
-1.17637e-23
-1.60057e-23
-1.5005e-23
-1.24664e-23
-8.072e-24
-4.92255e-24
-3.27515e-24
-1.21055e-24
-7.78582e-25
-2.4654e-25
-8.62148e-26
2.26552e-26
7.28822e-26
5.57239e-26
4.77938e-26
3.10607e-26
1.91246e-26
1.12644e-26
6.60946e-27
3.59876e-27
1.71398e-27
9.60609e-28
4.15039e-28
2.32714e-28
1.2305e-28
3.74191e-29
9.22459e-30
-3.19446e-30
-7.85073e-30
-3.88681e-30
-3.39347e-30
-1.77893e-30
-1.11197e-30
-6.73248e-31
-3.92176e-31
-2.1495e-30
0
0
0
0
-0.000317521
3.86523e-18
8.24858e-17
6.61915e-16
2.54892e-15
6.16843e-15
1.00741e-14
1.28658e-14
1.43642e-14
1.5057e-14
1.54107e-14
1.605e-14
1.6531e-14
1.61393e-14
1.39082e-14
1.04979e-14
6.90569e-15
4.01154e-15
2.00637e-15
8.98334e-16
3.49358e-16
1.22285e-16
3.82356e-17
9.66609e-18
1.78769e-18
2.23249e-19
1.16852e-20
-2.19613e-22
-4.95251e-23
2.86479e-25
1.0573e-25
-2.81994e-27
-2.30395e-29
3.00719e-30
-7.92262e-32
1.42947e-33
-3.09511e-35
4.71921e-37
2.54654e-39
-2.63332e-40
2.65025e-42
4.46985e-44
8.14872e-47
2.42395e-50
0
-1.21711e-07
-6.72399e-05
-0.000284608
-2.3007e-08
0
-8.39906e-08
-6.68708e-08
-1.10572e-06
-1.04407e-06
7.62909e-06
2.22667e-06
-6.83285e-05
-0.000226398
-0.000218489
5.06401e-08
1.94433e-07
2.72597e-07
1.9917e-07
4.70398e-08
9.08331e-08
2.06592e-07
2.07261e-07
2.53289e-07
1.78787e-07
4.91454e-08
5.34317e-08
7.70395e-08
0
1.72597e-26
0
-2.11942e-07
5.08907e-08
2.36017e-10
8.94915e-08
4.87597e-08
-8.1151e-05
1.05995e-05
1.35033e-05
1.08616e-06
-9.05339e-07
1.06786e-07
-9.6842e-52
-3.13245e-48
-5.02881e-45
-1.05305e-42
8.56559e-42
3.7945e-39
-1.80971e-37
4.82716e-36
-6.58229e-35
4.28778e-34
-2.0457e-31
3.19605e-29
-1.56217e-27
1.84729e-26
7.17513e-25
-1.7597e-23
-2.93402e-22
3.68426e-21
1.12854e-19
1.1442e-18
7.04205e-18
3.01906e-17
1.02673e-16
3.02425e-16
8.0413e-16
1.87796e-15
3.87917e-15
6.99454e-15
1.10347e-14
1.50804e-14
1.81422e-14
1.91488e-14
1.86633e-14
1.79317e-14
1.74537e-14
1.68533e-14
1.54475e-14
1.26915e-14
8.28728e-15
3.74635e-15
1.89977e-29
-4.39449e-32
-3.47443e-31
-8.54288e-31
-1.43527e-30
-2.75437e-30
-4.74912e-30
-9.54338e-30
-9.98957e-30
-8.33935e-30
-2.32661e-29
2.39303e-29
3.77366e-29
3.13408e-29
6.69008e-29
3.59509e-30
6.49465e-28
1.48111e-27
1.75473e-27
5.71291e-27
1.0416e-26
1.53857e-26
1.89138e-26
2.97963e-26
3.24487e-26
-1.6021e-26
-8.96348e-26
2.96776e-25
1.59742e-25
-2.58413e-25
2.53917e-25
6.03052e-25
8.32247e-26
3.02816e-25
4.36346e-24
3.98522e-24
-1.03066e-23
4.46141e-24
-2.44688e-23
-6.16066e-23
-8.15967e-23
-6.58151e-23
-1.7322e-22
-4.25954e-22
-4.43734e-22
-6.38241e-22
-4.49443e-22
-7.54246e-22
2.45375e-22
3.0709e-21
2.79558e-21
4.99039e-21
5.46698e-21
6.37744e-21
2.45151e-21
4.62165e-21
5.51586e-21
6.40605e-23
1.81162e-21
-5.67711e-21
-8.82485e-21
1.50266e-27
5.44192e-29
-8.89062e-21
-4.69009e-22
-7.94e-22
-4.5138e-21
-1.71575e-21
-1.28198e-22
-2.10947e-21
-1.70185e-21
-1.36922e-21
3.74149e-22
-1.13956e-21
1.36945e-22
2.43069e-22
-6.9801e-23
-6.19024e-24
-6.47965e-25
1.05502e-24
5.20155e-25
3.5011e-25
7.34417e-26
1.36864e-25
-2.92314e-25
1.63034e-25
5.74099e-25
-4.54289e-27
3.5699e-08
-1.31797e-07
3.12681e-07
3.33833e-08
4.259e-08
4.76245e-08
4.84655e-08
-0.000285038
-0.000154289
-1.66917e-05
1.72592e-05
6.80218e-06
-3.34254e-07
3.98947e-07
4.62467e-50
1.65296e-46
9.59839e-44
6.86418e-42
-5.46621e-40
1.2647e-40
1.28325e-36
-7.30059e-35
3.20917e-33
-1.80472e-31
7.08929e-30
-1.02337e-28
-4.36062e-27
2.28261e-25
-3.43457e-25
-9.75809e-23
-1.32643e-22
2.43207e-20
3.99862e-19
2.99316e-18
1.51124e-17
5.78754e-17
1.79758e-16
4.98713e-16
1.24773e-15
2.74548e-15
5.33903e-15
8.90579e-15
1.31284e-14
1.67866e-14
1.88266e-14
1.89813e-14
1.82546e-14
1.76475e-14
1.72456e-14
1.62743e-14
1.42591e-14
1.05666e-14
5.87699e-15
0
9.60742e-19
3.3488e-31
-2.41441e-31
-5.05052e-31
-1.20191e-30
-2.0131e-30
-4.61736e-30
-6.70219e-30
-1.45419e-29
-1.52883e-29
-1.66072e-29
-2.96375e-30
2.14879e-29
-4.61866e-31
-8.94384e-29
4.18408e-29
1.66858e-28
7.28777e-28
1.59641e-27
2.70114e-27
7.54093e-27
1.3353e-26
2.63442e-26
2.06711e-26
3.31293e-26
4.12158e-26
-3.76946e-26
1.13626e-25
-5.06921e-26
2.20294e-25
-9.91216e-26
4.09974e-25
-9.23531e-25
1.44327e-24
2.95797e-24
6.26865e-24
-4.6788e-24
-2.02773e-23
5.60497e-24
-3.6481e-23
-3.35691e-23
-1.41191e-22
-1.76494e-22
-4.61606e-22
-3.90417e-22
-6.29632e-22
-5.32352e-22
-6.47987e-22
-1.63756e-21
4.60881e-22
4.23605e-21
5.92627e-21
4.6226e-21
7.03903e-21
5.60179e-21
4.63909e-21
4.74768e-21
3.18255e-21
7.23128e-22
-5.13324e-21
-5.51788e-21
-7.90988e-21
-2.95996e-21
-6.5021e-21
-5.62915e-22
4.34074e-22
1.81698e-21
2.64944e-21
-9.02537e-22
-1.60659e-22
-2.26619e-22
-3.9948e-22
1.97737e-22
1.92337e-22
9.43501e-23
-1.08511e-23
-1.81003e-24
5.0866e-25
9.90397e-25
3.47741e-25
6.34512e-26
2.89906e-32
7.63356e-25
-2.44389e-26
1.47942e-26
2.73009e-25
1.15317e-25
9.5649e-26
-1.38166e-27
-4.16409e-28
4.7705e-31
-1.73789e-33
0
-3.88301e-39
0
0
0
1.08734e-15
1.50029e-16
8.4576e-18
4.2929e-17
4.47079e-16
2.14784e-15
9.83591e-08
7.07494e-08
5.57208e-07
5.58298e-08
2.1675e-08
4.40607e-08
4.8186e-08
0
0
0
0
0
0
0
0
0
0
0
0
0
0
0
0
0
0
0
0
0
0
0
0
0
0
0
0
0
0
0
0
0
0
0
0
0
0
0
0
0
0
0
0
0
0
0
0
0
0
0
0
0
0
0
0
0
0
0
0
0
0
0
0
0
0
0
0
0
0
0
0
0
0
0
0
0
0
0
0
0
0
0
0
0
0
0
0
0
0
0
0
0
0
0
0
0
0
0
0
0
0
0
0
0
0
0
0
0
0
0
0
0
0
0
0
0
0
0
0
0
0
0
0
0
0
0
0
0
0
0
0
0
0
0
0
0
0
0
0
0
0
0
0
0
0
0
0
0
0
0
0
0
0
0
0
0
0
0
0
0
0
0
0
0
0
0
0
0
0
0
0
0
0
0
0
0
0
0
0
0
0
0
0
0
0
0
0
0
0
1.19926e-25
2.13158e-22
1.28673e-15
-7.02488e-07
0
0
0
0
0
0
-2.01353e-37
0
-4.23378e-45
9.24755e-24
4.66075e-20
8.3215e-29
-1.53454e-26
0
0
1.26156e-27
4.99719e-08
4.57885e-25
-1.56641e-25
-2.17473e-24
2.51687e-25
-5.24737e-24
-8.41126e-24
-1.22548e-23
1.95567e-23
5.67952e-30
1.14838e-28
-3.36453e-24
-1.23609e-23
-1.04963e-23
-2.04978e-24
2.04851e-23
3.80689e-22
-1.09903e-21
-1.20589e-20
1.82398e-21
-1.27259e-20
-5.89164e-21
-2.41925e-21
8.23596e-21
1.16979e-20
3.09711e-20
9.25457e-21
-7.57302e-21
5.04599e-22
2.48745e-20
7.40149e-20
1.61994e-25
9.32684e-25
1.26947e-20
-5.94691e-20
-7.88267e-20
-1.25077e-19
-1.17924e-19
-8.98408e-20
-7.01191e-20
-1.53944e-20
2.51396e-20
4.36837e-20
7.32403e-20
9.36985e-20
7.85059e-20
4.1479e-20
3.68795e-20
2.17573e-20
8.37127e-21
1.44831e-21
-5.51748e-21
-5.03946e-21
-5.63249e-21
-4.27654e-21
-3.05514e-21
-1.93645e-21
-1.3622e-21
-7.03117e-22
-1.44172e-22
-2.64274e-23
3.83162e-23
6.60059e-23
5.41873e-23
4.4875e-23
2.99177e-23
2.01458e-23
9.94398e-24
6.2203e-24
4.1046e-24
1.77012e-24
7.72299e-25
2.1905e-25
1.26651e-25
4.70918e-26
-4.83913e-26
-3.3636e-26
-2.02604e-26
-2.2548e-26
-1.26997e-26
-8.82625e-27
-5.39389e-27
-2.99991e-27
-1.65856e-27
-8.7247e-28
-4.92421e-28
-2.56233e-28
-1.4296e-28
-5.70634e-29
-3.15423e-29
-1.68308e-29
-2.05152e-30
-5.27968e-30
0
0
0
0
0
0
0
0
0
0
0
0
0
0
0
0
0
0
0
0
0
0
0
0
0
0
0
0
0
0
0
0
0
0
0
0
0
0
0
0
0
0
0
0
0
0
0
0
0
0
0
0
0
0
0
0
0
0
0
0
0
0
0
0
0
0
0
0
0
0
0
0
0
0
0
0
0
0
0
0
0
0
4.11717e-116
4.40499e-116
1.38957e-113
1.47306e-113
6.69798e-113
-3.09296e-112
1.32164e-111
1.5652e-111
5.57916e-112
1.90366e-111
-1.51552e-110
4.74619e-111