/*--------------------------------*- C++ -*----------------------------------*\
  =========                 |
  \\      /  F ield         | OpenFOAM: The Open Source CFD Toolbox
   \\    /   O peration     | Website:  https://openfoam.org
    \\  /    A nd           | Version:  7
     \\/     M anipulation  |
\*---------------------------------------------------------------------------*/
FoamFile
{
    version     2.0;
    format      ascii;
    class       volScalarField;
    location    "0.26";
    object      T;
}
// * * * * * * * * * * * * * * * * * * * * * * * * * * * * * * * * * * * * * //

dimensions      [0 0 0 1 0 0 0];

internalField   nonuniform List<scalar> 
45544
(
0
0
0
0
0
0
0
0
0
0
0
0
0
0
0
0
0
0
0
0
0
0
0
0
0
0
0
0
0
0
0
0
0
0
0
0
0
0
0
0
0
0
0
0
0
0
0
0
0
0
0
0
0
0
0
0
0
0
0
0
0
0
0
0
0
0
0
0
0
0
0
0
0
0
0
0
0
0
0
0
0
0
0
0
0
0
0
0
0
0
0
0
0
0
0
0
0
0
0
0
0
0
0
0
0
0
0
0
0
0
0
0
0
0
0
0
0
0
0
0
0
0
0
0
0
0
0
0
0
0
0
0
0
0
0
0
0
0
0
0
0
0
0
0
0
0
0
0
0
0
0
0
0
0
0
0
0
0
0
0
0
0
0
0
0
0
0
0
0
0
0
0
0
0
0
0
0
0
0
0
0
0
0
0
0
0
0
0
0
0
0
0
0
0
0
0
0
0
0
0
0
0
0
0
0
0
0
0
0
0
1.92778e-43
1.15188e-42
-1.37938e-38
6.6779e-37
-9.13225e-34
8.93339e-33
-7.68922e-32
-5.13603e-30
-1.96165e-29
-3.90441e-29
-2.4099e-29
-6.19884e-29
-7.56964e-29
-8.47839e-29
-4.13369e-28
2.35385e-29
9.38764e-27
3.84929e-26
5.69456e-26
-4.80748e-26
-2.23027e-25
-2.59061e-25
4.76222e-26
-4.77528e-26
-1.02387e-24
-2.0888e-24
-2.41282e-24
-1.87289e-24
-1.68115e-24
4.6202e-26
1.39261e-24
1.83421e-24
1.82286e-24
1.69579e-24
1.24772e-24
6.77732e-25
5.03034e-25
3.02015e-25
1.88843e-25
9.84359e-26
2.75197e-26
-3.8995e-26
-2.28665e-26
-2.80682e-26
-1.68006e-26
-1.14235e-26
-8.14936e-27
-5.3802e-27
-3.06901e-27
-1.53247e-27
-8.62142e-28
-5.03928e-28
-2.41923e-28
-1.03349e-28
2.1968e-30
2.54776e-30
5.2136e-30
1.34578e-29
7.37104e-30
5.82957e-30
3.44438e-30
1.86455e-30
9.91355e-31
5.53817e-31
2.69859e-31
1.24354e-31
5.386e-32
2.73797e-32
1.22118e-32
4.63282e-33
1.62723e-34
-4.24504e-36
-2.00383e-34
-2.19907e-34
-1.29145e-34
-9.31934e-35
-4.81732e-35
-2.12841e-35
-1.2623e-35
-6.63097e-36
-3.25486e-36
-1.49903e-36
-6.34739e-37
-2.74275e-37
-1.33014e-37
-5.62547e-38
-1.8509e-38
-7.37638e-39
7.71246e-36
0
0
0
0
0
0
0
0
0
0
0
0
0
0
0
0
0
0
0
0
0
0
0
0
0
0
0
0
0
0
0
0
0
0
0
0
0
0
0
0
0
0
0
0
0
0
0
0
0
0
0
0
0
0
0
0
0
0
0
0
0
0
0
0
0
0
0
0
0
0
0
0
0
0
0
0
0
0
0
0
0
0
0
0
0
0
0
0
0
0
0
0
0
0
0
0
0
0
0
0
0
0
0
0
0
0
0
0
0
0
0
0
0
0
0
0
-4.32964e-129
-1.2608e-130
1.06262e-124
1.33003e-124
6.84203e-125
8.61994e-125
7.93279e-124
7.99395e-126
6.47849e-121
1.0635e-120
-1.39148e-118
5.64469e-118
-1.26284e-116
-3.65358e-117
-7.66305e-116
1.27222e-116
-1.88728e-113
-1.84531e-113
-5.3552e-113
-6.24617e-113
-3.43695e-113
-3.97469e-113
-4.93809e-113
6.71455e-113
-5.4322e-112
-5.24096e-112
-7.35377e-112
-7.35311e-112
-2.68981e-111
-2.37422e-111
-6.69675e-111
-1.16438e-111
-3.18439e-108
-3.86027e-108
-2.03286e-108
-2.45921e-108
-1.40789e-108
-1.17986e-108
-5.99574e-108
-7.0087e-108
-2.39286e-106
-9.51103e-106
-1.14557e-101
-6.38094e-103
-6.27642e-99
-7.6009e-99
-3.91632e-99
-4.65244e-99
-3.02565e-98
9.18404e-98
-1.49332e-96
-1.61961e-96
-1.77488e-96
-2.04851e-96
-3.48379e-96
-3.17796e-96
-2.89551e-96
-9.03192e-97
-2.54288e-95
-3.02094e-95
-1.91867e-95
-9.78138e-96
-5.67166e-95
-5.96922e-95
-3.80945e-95
-3.88619e-95
-2.40871e-95
-2.57442e-95
-1.78951e-95
-1.20869e-95
-8.94579e-95
-9.52722e-95
-5.10113e-94
-6.0088e-94
-3.33427e-93
-3.81263e-93
-2.16157e-93
-2.47e-93
-1.41231e-93
-1.56088e-93
-8.17972e-93
-6.93038e-93
-1.92969e-92
-2.13554e-92
-1.20201e-92
-1.22623e-92
-5.48502e-92
1.49242e-91
-5.70555e-91
-3.85468e-91
-4.8321e-91
-2.42175e-91
-3.70856e-91
-1.61472e-91
-3.86676e-91
2.003e-91
-6.31033e-90
-5.53526e-90
-5.22869e-89
-3.68646e-89
-3.67901e-89
-2.63182e-89
-2.62937e-89
-1.97789e-89
-1.8752e-89
-1.36902e-89
-1.14592e-88
-8.59497e-89
-2.30808e-88
-2.46946e-88
-1.49923e-88
-1.58444e-88
-1.072e-88
-7.05687e-89
-1.8882e-88
-1.59915e-88
-1.93259e-88
-1.89123e-88
-2.18321e-88
-1.75803e-88
-1.72271e-88
-4.0002e-89
-2.42883e-88
-1.69422e-88
-5.03236e-88
-1.67958e-88
-3.69924e-88
-1.65037e-88
-5.64562e-88
-5.26237e-88
-3.84834e-88
-3.63439e-88
-2.69089e-88
-2.21496e-88
-8.63401e-88
-9.47921e-88
-5.31261e-88
-5.73352e-88
-4.95047e-88
2.69371e-88
-1.89291e-87
-1.19415e-87
-2.17763e-87
-1.92113e-87
-2.62507e-87
-1.93847e-87
-2.1682e-87
-1.36046e-88
-2.77053e-87
-1.48458e-87
-2.74454e-87
1.48192e-87
-4.35148e-87
-2.29902e-87
-4.28803e-87
-3.32425e-87
-3.10588e-87
-2.15357e-87
-2.83913e-87
-2.44873e-87
-2.54214e-87
-2.48948e-87
-1.91163e-87
-8.76937e-88
-3.77639e-87
-3.85647e-87
-2.40694e-87
-2.19757e-87
-1.59364e-87
-1.47494e-87
-2.6209e-87
-2.30819e-87
-3.93085e-87
-4.24017e-87
-2.31303e-87
-2.50638e-87
-1.46445e-87
-1.46129e-87
-1.31859e-87
-1.38972e-87
-1.06122e-87
-1.15551e-87
-9.70446e-88
-1.00517e-87
-6.38344e-88
-5.74816e-88
-4.09689e-88
-3.71682e-88
-2.39752e-88
-2.00135e-88
-1.50094e-88
-1.26304e-88
-2.27524e-88
-2.35595e-88
-1.44651e-88
-1.48838e-88
-2.03861e-88
-1.91936e-88
-2.71858e-88
-3.00654e-88
-1.70221e-88
-1.85625e-88
-1.07812e-88
-8.8783e-89
-1.40895e-88
-1.22689e-88
-1.24602e-88
-1.21961e-88
-1.09237e-88
-8.9798e-89
-8.44014e-89
-3.983e-89
-2.36385e-88
-2.39426e-88
-1.53528e-88
-1.51763e-88
-1.57309e-88
-1.48701e-88
-1.48375e-88
-1.54228e-88
-9.87639e-89
-1.02091e-88
-6.6214e-89
-5.70634e-89
-1.62382e-88
-1.75547e-88
-1.02178e-88
-1.09424e-88
-6.78796e-89
-5.2921e-89
-7.23969e-89
-6.33226e-89
-6.12854e-89
-6.02776e-89
-4.29766e-89
-4.2501e-89
-2.8283e-89
-2.58607e-89
-3.55901e-89
-3.94788e-89
-2.27467e-89
-2.32614e-89
-1.86266e-89
-1.94188e-89
-1.27553e-89
-1.34268e-89
-7.9559e-90
-8.39299e-90
-4.6003e-90
-4.74761e-90
-3.88241e-90
-4.26165e-90
-3.58102e-90
-3.623e-90
-2.07041e-90
-2.09934e-90
-1.37631e-90
-1.4064e-90
2.17767e-86
-4.37314e-88
2.28186e-83
2.69006e-83
4.85664e-83
5.97131e-83
3.101e-83
3.80536e-83
3.42266e-82
-6.66905e-83
3.082e-79
8.84082e-80
1.11108e-76
6.58915e-77
-2.28157e-75
-4.72195e-75
1.8775e-76
-3.35823e-74
1.92701e-73
-8.97655e-73
1.07638e-71
-6.17323e-73
1.90272e-69
-1.03678e-33
-3.51706e-31
5.40939e-30
-2.09333e-27
1.5052e-25
7.36737e-24
1.15624e-22
8.43819e-22
3.40967e-21
9.18597e-21
1.64629e-20
2.30143e-20
2.84493e-20
3.25776e-20
3.62723e-20
4.07371e-20
4.70542e-20
5.16444e-20
5.04932e-20
4.31761e-20
3.21607e-20
2.08853e-20
1.18803e-20
6.20514e-21
2.88892e-21
1.20941e-21
4.65708e-22
1.51938e-22
3.88753e-23
7.41077e-24
9.44487e-25
7.48399e-26
2.66927e-27
-1.63063e-29
-4.66732e-30
-3.4915e-32
1.85776e-33
-4.40175e-35
5.2146e-37
8.07753e-39
3.25826e-41
-3.54775e-43
1.9816e-44
-2.43914e-46
3.01574e-50
-9.04891e-53
3.21159e-56
-4.5634e-60
9.42789e-65
-6.40119e-05
0.000139988
6.70879e-05
-5.32689e-05
5.74824e-05
-0.000122651
-8.8508e-05
-0.000118716
-0.000143739
-1.8346e-05
-0.0001137
9.75223e-05
-8.12391e-06
-2.44625e-05
-1.88338e-06
-0.000360044
-0.000196985
-0.000896626
-0.000781087
-0.00121455
-0.00157103
-0.000822279
-0.00236379
0.000954503
-0.00270157
0.00471922
-0.00211945
0.010932
-4.69277e-05
0.0201947
0.00311713
0.0319486
0.00850097
0.0463589
0.0146605
0.063889
0.0225619
0.0857593
0.0310659
0.155854
0.240168
0.211074
0.237115
0.257951
0.22362
0.243881
0.229674
0.239724
0.232297
0.245263
0.231757
0.246093
0.228112
0.24378
0.226855
0.240858
0.227545
0.240876
0.230019
0.242688
0.230579
0.244261
0.229514
0.243922
0.228375
0.242643
0.229129
0.2422
0.228708
0.242682
0.229438
0.243058
0.227714
0.241499
0.240422
0.251235
0.178771
0.226815
2.07418e-05
-1.43747e-05
-5.21249e-05
3.46223e-05
-0.000579776
-0.00145148
0.00165668
0.0137432
0.0368935
0.0717645
9.80931e-06
5.62031e-05
5.88453e-05
5.44552e-05
5.21496e-05
5.1706e-05
5.47213e-05
5.38695e-05
6.25203e-05
-5.80161e-07
2.37779e-36
0
0
0
0
0
0
0
0
0
0
0
1.25859e-43
-2.01862e-40
-1.07355e-37
-6.28585e-36
-1.25663e-34
-2.63073e-33
1.66315e-31
-1.36219e-29
-2.02293e-29
-3.05905e-29
-1.67635e-29
-5.83423e-29
-6.98263e-29
-2.34345e-28
-3.39525e-28
-7.24295e-28
1.72813e-26
2.18119e-26
2.0039e-26
-5.59894e-26
-2.8609e-25
-2.24697e-25
1.07225e-25
-1.5789e-25
-1.56316e-24
-2.36352e-24
-2.83911e-24
-1.59955e-24
-1.22021e-24
6.47337e-25
1.57876e-24
1.61591e-24
1.94121e-24
1.56152e-24
1.02642e-24
6.03404e-25
3.78798e-25
2.42237e-25
1.39996e-25
4.75398e-26
8.84016e-27
-2.72231e-26
-1.9889e-26
-2.259e-26
-1.31948e-26
-9.54222e-27
-6.86244e-27
-3.80601e-27
-2.48662e-27
-1.13756e-27
-6.53384e-28
-3.61398e-28
-1.4212e-28
-6.90121e-29
-1.53269e-30
4.38591e-30
6.63284e-30
9.93579e-30
5.92403e-30
4.81998e-30
2.48774e-30
1.33426e-30
7.72675e-31
3.66915e-31
1.98338e-31
8.11807e-32
3.79535e-32
1.7595e-32
6.75172e-33
3.17597e-33
2.05284e-34
-2.64542e-34
-1.34802e-34
-1.52902e-34
-9.5494e-35
-6.74573e-35
-3.0789e-35
-1.47392e-35
-8.97023e-36
-4.362e-36
-2.18889e-36
-9.50274e-37
-4.23366e-37
-1.96681e-37
-8.39822e-38
-3.76421e-38
-1.31296e-38
0
1.36899e-37
0
-1.41549e-33
3.43677e-32
2.37317e-69
6.25829e-32
2.86072e-30
-3.65445e-28
2.9139e-27
1.32546e-24
3.28523e-23
3.28975e-22
1.81968e-21
5.83525e-21
1.2728e-20
1.98771e-20
2.57893e-20
3.06747e-20
3.44192e-20
3.81677e-20
4.38386e-20
4.97269e-20
5.18121e-20
4.74688e-20
3.79544e-20
2.64182e-20
1.61147e-20
8.72795e-21
4.28859e-21
1.90253e-21
7.64827e-22
2.74428e-22
8.06598e-23
1.76629e-23
2.90978e-24
2.85244e-25
1.5899e-26
2.81936e-28
-1.61467e-29
-6.85752e-31
8.61012e-33
9.72253e-35
-6.11667e-36
1.47352e-37
-6.07728e-40
2.57514e-41
-2.54514e-43
1.5565e-45
9.33092e-48
1.35648e-50
2.22432e-55
6.08045e-58
-2.30311e-61
-2.98132e-06
6.10107e-67
0.0459833
0.108343
0.131291
2.30983e-05
-6.21408e-05
3.22003e-05
-9.67378e-05
-0.00110239
-0.000639489
0.0062975
0.0241611
0.0526737
1.80583e-05
0.0931077
3.52472e-05
5.82618e-05
5.38188e-05
5.13382e-05
5.27096e-05
5.29139e-05
5.35143e-05
4.33853e-05
6.27029e-05
-3.39198e-05
0
0
0
0
0
0
0
0
0
0
1.53761e-43
1.54582e-40
-6.19318e-38
-2.40383e-36
-3.1844e-33
6.30741e-32
9.93547e-31
9.43251e-30
1.31164e-29
-4.31068e-30
-9.69873e-30
2.281e-29
3.46935e-29
7.16985e-28
-1.71276e-28
-5.4812e-27
-3.07404e-26
2.1842e-26
1.65153e-25
2.09923e-25
4.16347e-25
1.33917e-26
1.18085e-25
1.54222e-24
2.40405e-24
2.77335e-24
3.03456e-24
2.8201e-24
-8.18607e-25
-2.31106e-24
-1.12314e-24
-1.42673e-24
-1.20069e-24
-4.71611e-25
-4.45382e-25
-2.61869e-25
-2.16811e-25
-7.42097e-26
-4.38107e-26
-2.78097e-26
2.76375e-26
-2.60037e-26
-1.09685e-26
-1.21902e-26
-4.73114e-27
-1.22769e-27
-2.25067e-27
-7.13531e-28
-4.28472e-28
-1.25758e-30
3.39057e-29
-2.56262e-29
3.73064e-29
-2.96794e-29
2.63659e-29
1.95619e-29
2.08754e-31
7.35221e-30
3.70343e-30
3.15315e-30
1.20542e-30
6.40798e-31
4.03423e-31
1.67929e-31
9.16684e-32
2.83715e-32
1.23593e-32
6.51039e-33
9.499e-34
1.56436e-33
-7.92235e-34
-7.33505e-34
-1.97688e-34
-2.06781e-34
-1.08592e-34
-8.27203e-35
-3.75256e-35
-1.36544e-35
-9.35266e-36
-4.24768e-36
-1.97348e-36
-8.82691e-37
-3.57714e-37
-1.74754e-37
-7.37304e-38
-2.6847e-38
-7.25493e-39
-6.08009e-38
-2.19868e-30
-3.7068e-27
3.62331e-25
1.56745e-23
2.10986e-22
1.42544e-21
5.25588e-21
1.30228e-20
2.17655e-20
2.90979e-20
3.52457e-20
3.99585e-20
4.41406e-20
5.03176e-20
5.77683e-20
6.22057e-20
5.87136e-20
4.84189e-20
3.4737e-20
2.18318e-20
1.20326e-20
6.10299e-21
2.74189e-21
1.11577e-21
4.14101e-22
1.27674e-22
2.95785e-23
5.12081e-24
5.35133e-25
3.37625e-26
7.28125e-28
-2.76837e-29
-1.62581e-30
1.35936e-32
3.5582e-34
-1.50737e-35
3.09248e-37
-1.28007e-39
5.54298e-41
-5.97944e-43
4.12429e-45
1.95104e-47
3.04172e-50
3.11397e-55
1.38112e-57
-5.16475e-61
1.20346e-66
-4.6214e-05
-3.30141e-05
4.13369e-08
0.000102398
-0.000882937
-0.00240602
-0.0013712
0.00555778
0.0193365
0.04303
3.73265e-05
3.0182e-05
2.86571e-05
3.22375e-05
2.93004e-05
2.9249e-05
3.06935e-05
3.62014e-05
4.28802e-05
-3.53383e-06
0
0
0
0
0
0
0
0
0
2.40972e-43
5.84765e-43
-1.40302e-39
-2.6418e-36
-5.8061e-34
-3.19461e-32
3.74046e-31
2.03682e-29
2.83149e-29
-2.27396e-29
-6.4487e-30
-1.33552e-29
1.3854e-29
2.58736e-28
1.99304e-28
-1.98162e-27
-2.5589e-26
2.87937e-26
6.64463e-27
2.8282e-25
4.82195e-25
1.4438e-25
-6.05388e-25
3.18463e-25
2.13675e-24
3.75407e-24
2.47215e-24
2.3752e-24
1.18506e-24
-2.22926e-24
-1.02604e-24
-1.1744e-24
-1.70054e-24
-7.03296e-25
-3.94817e-25
-4.25949e-25
-2.26805e-25
-8.37438e-26
-1.32997e-26
1.18087e-26
1.44303e-26
-4.08272e-26
-1.15803e-26
-1.52857e-26
-8.5859e-27
-1.52372e-27
-2.22257e-27
-1.53784e-27
-4.3241e-28
-8.31792e-29
-2.84895e-29
-5.30834e-29
-6.21151e-30
-1.50023e-29
4.18673e-29
2.25818e-29
4.15418e-30
1.09084e-29
5.39084e-30
3.18072e-30
2.14655e-30
1.04228e-30
5.01131e-31
2.94114e-31
1.24271e-31
5.17151e-32
1.94645e-32
1.32439e-32
4.19783e-33
1.56909e-33
-1.30615e-33
-5.41756e-34
-3.74214e-34
-3.0632e-34
-1.45438e-34
-1.10975e-34
-5.7929e-35
-2.19934e-35
-1.29169e-35
-6.55831e-36
-2.92532e-36
-1.39805e-36
-5.2617e-37
-2.25239e-37
-1.15162e-37
-4.52893e-38
-1.02294e-38
-6.37157e-41
2.93002e-24
6.5268e-23
5.82942e-22
2.90422e-21
8.72977e-21
1.74776e-20
2.56886e-20
3.24352e-20
3.79277e-20
4.19603e-20
4.68836e-20
5.40382e-20
6.07034e-20
6.14608e-20
5.42616e-20
4.16563e-20
2.8054e-20
1.63634e-20
8.68697e-21
4.11364e-21
1.76868e-21
6.97704e-22
2.37591e-22
6.31575e-23
1.2746e-23
1.72332e-24
1.48917e-25
6.03448e-27
1.53909e-30
-9.41942e-30
-1.19648e-31
4.03769e-33
-7.8648e-35
7.15677e-37
2.17401e-38
4.75236e-42
-1.73073e-44
3.84011e-44
-5.45062e-46
3.06291e-50
-1.96617e-52
6.768e-56
-8.49527e-60
1.35583e-64
7.68925e-69
2.12905e-05
-3.603e-05
8.52759e-05
-0.00020868
-0.00170212
-0.00252998
0.00127524
0.0115561
0.0300849
0.069947
4.3466e-05
2.88923e-05
3.07312e-05
2.95791e-05
2.83821e-05
3.01417e-05
3.17015e-05
2.65676e-05
5.47855e-05
-2.27653e-05
0
-7.69078e-31
1.48935e-26
-8.40317e-28
6.99304e-30
4.20185e-05
0
0
0
0
0
0
0
0
0
0
0
0
0
0
0
0
0
0
0
0
0
0
0
0
0
0
0
0
0
0
0
0
0
0
0
0
0
0
0
0
0
0
0
0
0
0
0
0
0
0
0
0
0
0
0
0
0
0
0
0
0
0
0
0
0
0
0
0
0
0
0
0
0
0
0
0
0
0
0
0
0
0
0
0
0
0
0
0
0
0
0
0
0
0
0
0
0
0
0
0
0
0
0
0
0
0
0
0
0
0
0
0
0
0
0
0
0
0
0
0
0
0
0
0
0
0
0
0
0
0
0
0
0
0
0
0
0
0
0
0
0
0
0
0
0
0
0
0
0
0
0
0
0
0
0
0
0
0
0
0
0
0
0
0
0
0
0
0
0
0
0
0
0
0
0
0
0
0
0
0
0
0
0
0
0
0
0
0
0
0
0
0
0
0
0
0
-8.80084e-31
7.20218e-32
1.48129e-31
-6.03434e-30
0
0
0
0
0
0
0
0
8.90786e-41
-1.69169e-38
-7.47598e-36
1.15698e-33
3.44094e-31
-5.42106e-30
-9.032e-29
-1.25333e-27
-1.61661e-27
-1.48822e-27
-9.31824e-28
-2.71428e-27
-3.10485e-27
-1.28243e-26
2.42481e-28
1.46269e-25
9.93673e-25
3.10161e-24
3.10279e-25
-4.57415e-24
-8.83914e-24
-6.28648e-24
-1.06251e-23
-2.99959e-23
-3.00967e-23
-2.24864e-23
-1.59916e-23
2.74802e-23
6.12299e-23
7.09347e-23
6.56948e-23
5.3575e-23
1.6177e-23
1.05008e-23
2.80059e-24
-4.75763e-24
-2.92085e-24
-4.77534e-24
-3.59184e-24
-2.99052e-24
-2.36838e-24
-1.49482e-24
-9.39265e-25
-5.55112e-25
-3.26822e-25
-1.60555e-25
-9.28615e-26
-3.83618e-26
5.80506e-27
7.11663e-27
6.00721e-27
5.74563e-27
3.86198e-27
3.04469e-27
1.85301e-27
1.11075e-27
5.37992e-28
2.87593e-28
1.51819e-28
6.5102e-29
2.17623e-29
9.61699e-30
4.2511e-30
8.70821e-31
-1.12167e-30
-6.47558e-31
-7.51657e-31
-4.457e-31
-2.22524e-31
-1.36222e-31
-6.31353e-32
-3.31464e-32
-1.60298e-32
-7.2051e-33
-3.55208e-33
-1.68544e-33
-8.03318e-34
-3.10041e-34
-1.43062e-34
-5.84093e-35
-1.9123e-35
-9.55083e-36
-2.87942e-36
-1.25711e-36
-3.9023e-37
2.55014e-37
2.12238e-37
2.93424e-36
3.55197e-24
0
4.57849e-36
0
0
0
0
0
0
0
0
0
0
0
0
0
0
0
0
0
0
0
0
0
0
0
0
0
0
0
0
0
0
0
0
0
0
0
0
0
0
0
0
0
0
0
0
0
0
0
0
0
0
0
0
0
0
0
0
0
0
0
0
0
0
0
0
0
0
0
0
0
0
0
0
0
0
0
0
0
0
0
0
0
0
0
0
0
0
0
0
0
0
0
0
0
0
0
0
0
0
0
0
0
0
0
0
0
0
0
0
0
0
0
0
0
0
0
0
-3.56535e-127
0
8.74627e-123
1.10017e-122
3.16461e-122
-1.21561e-121
8.76319e-122
-4.07182e-122
-1.44375e-117
-8.65214e-119
-4.11854e-115
-4.97485e-115
-8.14714e-114
3.61253e-113
-2.10634e-113
2.03972e-113
-2.5279e-111
-2.79801e-111
-2.44454e-111
-2.54837e-111
-1.87862e-111
-1.56734e-111
-5.65667e-110
-5.85361e-110
-7.20606e-110
-7.56069e-110
-8.23997e-110
5.86153e-110
-3.9215e-109
-3.81937e-109
-1.09114e-108
-1.01486e-108
-1.70765e-106
-1.98647e-106
-1.17359e-106
-1.00544e-106
-8.10058e-106
-8.16364e-106
-5.85443e-106
-3.41992e-106
2.40594e-102
-9.52706e-104
8.87836e-100
1.6128e-99
-2.74615e-97
-3.19176e-97
-4.32934e-97
-1.3072e-97
-1.05469e-94
-1.23087e-94
-2.14091e-94
-2.48937e-94
-1.4255e-94
-1.54868e-94
-7.81507e-94
-5.35752e-94
-1.73466e-93
-1.94753e-93
-1.16277e-93
-1.22017e-93
-8.68586e-93
-1.00561e-92
-7.72157e-93
-8.98885e-93
-5.07495e-93
-5.97519e-93
-3.15774e-93
-3.2142e-93
-6.90682e-93
-7.61832e-93
-1.20061e-92
-1.34803e-92
-2.13075e-92
-2.40436e-92
-1.92588e-91
-1.94333e-91
-1.21789e-91
-1.23012e-91
-8.50485e-92
-7.39584e-92
-9.49823e-91
-9.56341e-91
-8.47961e-91
-6.38753e-91
-1.0815e-90
2.03149e-91
-4.73696e-89
-3.50495e-89
-7.61369e-89
-6.05673e-89
-8.30054e-89
4.86938e-89
-7.14393e-89
2.35827e-89
-1.42796e-88
-9.17374e-89
-4.69657e-88
3.95785e-88
-6.04844e-87
-5.94893e-87
-4.13909e-87
-3.33283e-87
-2.81783e-87
-2.09392e-87
-2.0113e-87
-1.34754e-87
-1.16539e-86
-1.15113e-86
-9.19946e-87
-9.10424e-87
-6.18861e-87
-6.05024e-87
-1.29213e-86
-1.20492e-86
-1.63218e-86
-1.65177e-86
-1.11211e-86
-1.00463e-86
-1.99383e-86
-8.72703e-87
-3.52419e-86
-3.38641e-86
-2.78307e-86
-1.11453e-86
-9.30825e-86
-1.02575e-85
-5.98959e-86
-6.23122e-86
-3.84211e-86
-3.97579e-86
-2.5181e-86
-2.43366e-86
-2.26449e-86
-2.24924e-86
-3.01463e-86
-3.16411e-86
-2.06706e-86
-1.79944e-86
-1.62554e-85
-1.44465e-85
-2.25157e-85
-2.11642e-85
-1.54592e-85
-1.33473e-85
-2.45425e-85
-9.97976e-86
-4.51031e-85
-4.28034e-85
-3.65277e-85
-1.01461e-85
-8.399e-85
-8.5083e-85
-5.57998e-85
-5.42602e-85
-3.70644e-85
-3.61166e-85
-3.04973e-85
-2.79346e-85
-2.0047e-85
-1.75432e-85
-1.30739e-85
-1.09081e-85
-2.70075e-85
-2.7919e-85
-1.72216e-85
-1.48508e-85
-1.5966e-85
-1.63752e-85
-1.01661e-85
-9.97377e-86
-1.97746e-85
-2.05015e-85
-1.37284e-85
-1.42059e-85
-8.0925e-86
-8.69617e-86
-7.85714e-86
-8.38358e-86
-5.71041e-86
-5.99459e-86
-3.83185e-86
-2.8647e-86
-4.6394e-86
-4.62881e-86
-4.74674e-86
-5.26919e-86
-2.91688e-86
-3.21293e-86
-2.16096e-86
-2.47268e-86
-1.31786e-86
-1.44627e-86
-1.14555e-86
-1.29941e-86
-7.08233e-87
-7.9062e-87
-1.31904e-86
-1.39726e-86
-9.06379e-87
-9.49472e-87
-5.83863e-87
-6.01736e-87
-8.88491e-87
-8.27617e-87
-1.03216e-86
-1.02123e-86
-6.59567e-87
-6.14023e-87
-8.4448e-87
-3.4845e-87
-1.10638e-86
-9.6425e-87
-1.04076e-86
-6.55081e-87
-7.08499e-87
-4.63847e-87
-8.38883e-87
-6.14068e-87
-5.69436e-87
-4.2729e-87
-3.86042e-87
-2.96386e-87
-4.23289e-87
-3.70086e-87
-5.21134e-87
-5.39697e-87
-3.34361e-87
-3.40674e-87
-5.39606e-87
-5.35257e-87
-4.69084e-87
-4.83132e-87
-2.87013e-87
-3.0316e-87
-1.99624e-87
-1.9032e-87
-1.59911e-87
-1.68568e-87
-9.85611e-88
-1.00007e-87
-9.49015e-88
-9.53824e-88
-7.30012e-88
-7.43304e-88
-4.57804e-88
-4.81758e-88
-2.93347e-88
-3.22277e-88
-1.80534e-88
-1.917e-88
-1.1494e-88
-1.06133e-88
-1.57193e-88
-1.68035e-88
-9.28885e-89
-9.81401e-89
-6.31243e-89
-6.33767e-89
3.21482e-84
-2.96316e-86
3.30559e-81
4.01231e-81
2.2274e-81
2.07364e-81
1.77479e-81
1.23443e-81
1.40567e-79
1.19373e-79
9.7594e-78
1.20938e-77
3.7175e-75
-5.5814e-76
-2.18689e-73
-4.19525e-73
6.22459e-72
4.81975e-72
-2.33333e-70
-3.24979e-70
-8.24521e-71
5.99231e-69
-2.16892e-70
1.96336e-26
-7.33263e-05
2.81313e-05
-1.53829e-05
-4.29551e-27
-7.11465e-27
8.16809e-30
-1.93533e-30
1.93652e-29
4.43712e-25
6.42233e-26
1.05714e-24
-1.00377e-27
-2.33245e-27
7.81933e-23
6.97223e-22
3.46493e-21
1.04144e-20
2.08497e-20
3.06293e-20
3.86682e-20
4.53119e-20
4.99608e-20
5.59434e-20
6.43741e-20
7.2334e-20
7.32864e-20
6.4565e-20
4.95392e-20
3.33979e-20
1.95051e-20
1.03477e-20
4.89722e-21
2.10378e-21
8.28533e-22
2.81962e-22
7.52584e-23
1.51845e-23
2.06022e-24
1.78669e-25
7.31003e-27
6.96999e-30
-1.11703e-29
-1.51372e-31
4.77251e-33
-8.88089e-35
7.69983e-37
2.63093e-38
3.1565e-42
4.81185e-44
4.40582e-44
-6.28051e-46
3.74733e-50
-2.24203e-52
7.67833e-56
-9.40698e-60
7.47332e-65
7.26513e-67
-1.15385e-67
1.27356e-68
-2.58814e-05
-1.30065e-05
0.0821156
-0.000102872
-0.00011654
-8.53324e-05
7.00363e-06
-3.22431e-06
0.000162785
0.000131869
0.000205275
0.000254248
2.39367e-05
0.000260662
-0.000320182
6.33496e-05
-0.000725829
-0.000203435
-0.000838572
-0.000412284
-0.00063128
-0.000477859
2.41563e-05
-0.000442379
0.00127287
-0.000174354
0.00286399
0.000339061
0.00461826
0.000875841
0.00635431
0.00106875
0.00784831
0.00150115
0.00871361
0.00116526
0.00943903
0.000314476
0.1341
0.294212
0.275412
0.303806
0.271774
0.288543
0.277758
0.290739
0.278576
0.294524
0.275442
0.292964
0.272427
0.289507
0.272628
0.28806
0.274648
0.289427
0.27649
0.291242
0.27584
0.292321
0.274737
0.291271
0.274365
0.290547
0.274715
0.29083
0.275182
0.290955
0.272973
0.289316
0.283031
0.294474
0.273147
0.220742
0.300154
0
6.10687e-05
0.000158956
-0.000452602
-0.000888907
0.000391148
0.00349146
0.00699049
0.00987922
0.0262779
-9.06392e-05
-7.11466e-05
-1.09683e-05
-1.87853e-06
-1.49544e-05
-2.03536e-05
-1.71018e-05
-1.6745e-05
-1.92657e-05
-1.78313e-05
-1.74294e-05
-1.69458e-05
9.95586e-06
-1.23612e-05
0
0
0
0.000108664
4.57506e-05
6.14584e-05
0.250819
0.294224
0.168537
2.18817e-05
3.93105e-05
0.0130591
-0.00158568
8.72462e-08
-1.13367e-05
4.9031e-36
0
0
-2.42907e-33
-5.17521e-29
0
-1.62208e-33
0
0
0
0
0
0
0
2.65851e-41
3.10835e-41
-1.27481e-36
5.1211e-34
-7.86881e-32
3.28035e-30
-2.7987e-29
-1.11795e-27
-2.161e-27
-1.29188e-27
-1.22582e-27
-2.58509e-27
-2.75066e-27
2.09469e-27
-1.5899e-26
-2.39774e-27
-5.83758e-26
1.85888e-24
3.97638e-24
8.93236e-25
-8.62243e-24
-3.56082e-24
-9.9631e-25
-9.78876e-24
-1.98857e-23
-3.62545e-23
-1.17272e-23
2.07285e-23
5.34356e-23
5.68426e-23
7.41386e-23
5.47528e-23
2.77315e-23
1.44575e-23
2.62484e-24
-7.28457e-24
-3.57746e-24
-5.46269e-24
-4.5213e-24
-3.68169e-24
-2.8378e-24
-1.95416e-24
-1.17172e-24
-7.0079e-25
-4.52272e-25
-1.99018e-25
-1.22093e-25
-5.04444e-26
2.20691e-28
1.03054e-26
6.56122e-27
7.7106e-27
4.94353e-27
3.57691e-27
2.44708e-27
1.43543e-27
7.82157e-28
4.03247e-28
2.13851e-28
8.02217e-29
4.69462e-29
1.52912e-29
6.65859e-30
1.34898e-30
-1.2864e-30
-8.40018e-31
-9.50934e-31
-6.243e-31
-3.08797e-31
-1.79376e-31
-9.52746e-32
-4.64743e-32
-2.48182e-32
-1.0949e-32
-5.0779e-33
-2.4379e-33
-1.12448e-33
-4.99729e-34
-2.12221e-34
-8.3696e-35
-2.95855e-35
-1.43425e-35
-4.50221e-36
-1.68476e-36
-5.67331e-37
1.8635e-39
2.54869e-37
3.94677e-37
0
0
0
0
-0.00576797
1.89141e-23
2.52073e-22
1.69968e-21
6.28257e-21
1.5531e-20
2.59729e-20
3.46934e-20
4.20514e-20
4.77119e-20
5.25981e-20
6.00081e-20
6.88407e-20
7.41684e-20
6.9885e-20
5.76339e-20
4.1285e-20
2.60279e-20
1.43447e-20
7.26704e-21
3.25834e-21
1.32668e-21
4.92519e-22
1.51782e-22
3.52089e-23
6.09196e-24
6.40468e-25
4.06818e-26
8.92759e-28
-3.23404e-29
-1.96496e-30
1.49053e-32
4.33904e-34
-1.7693e-35
3.61937e-37
-1.40464e-39
6.44964e-41
-6.97878e-43
4.82268e-45
2.24221e-47
3.4949e-50
3.20541e-55
1.61032e-57
-5.86284e-61
0
1.28095e-06
0.0210966
0.0616204
-8.64596e-07
0
0.00017212
-3.66815e-05
-0.00083618
-0.000531681
0.0017928
0.00540601
0.00848087
-0.00446091
0.0129941
-1.30857e-05
-1.63412e-05
-2.20116e-05
-1.79267e-05
-1.28032e-05
-1.63348e-05
-1.90079e-05
-1.83004e-05
-1.83304e-05
-1.41693e-05
-2.63227e-05
5.9071e-06
5.40125e-06
0
-1.39809e-38
0
0.000126461
-2.67746e-05
-1.4029e-05
-1.38535e-05
-1.31739e-05
-0.000418672
0.000801827
0.000357084
-0.00037893
-0.000516138
-2.70412e-05
-1.3392e-64
-1.68904e-59
1.66582e-55
-4.66388e-52
2.83758e-51
-1.41974e-45
8.08669e-44
2.20485e-42
-1.47583e-40
6.44957e-38
6.70175e-37
-1.45986e-34
9.94307e-33
-4.14258e-31
-2.15257e-29
9.54122e-29
1.5537e-26
3.42865e-25
3.7561e-24
2.5292e-23
1.21447e-22
4.23798e-22
1.1966e-21
3.02095e-21
6.92752e-21
1.41901e-20
2.64075e-20
4.37777e-20
6.34505e-20
7.9296e-20
8.7144e-20
8.37981e-20
7.31486e-20
6.38352e-20
5.75868e-20
5.14846e-20
4.33976e-20
3.36508e-20
2.14348e-20
9.448e-21
2.9585e-36
-3.36024e-38
5.04524e-37
8.37898e-38
-2.56233e-37
-6.8014e-37
-4.317e-36
-6.87237e-36
-3.14605e-35
-9.85615e-35
-1.90242e-34
-5.55025e-34
-1.18804e-33
-2.23547e-33
-5.3574e-33
-1.22126e-32
-2.86446e-32
-5.39658e-32
-1.20103e-31
-2.22193e-31
-4.70851e-31
-7.30187e-31
-6.92173e-31
-1.87669e-30
-1.41485e-30
3.70025e-31
9.26114e-31
-7.50625e-30
5.68763e-30
2.1438e-29
3.94783e-29
1.1248e-28
3.27058e-28
5.83336e-28
7.87085e-28
1.9782e-27
5.55268e-27
5.07246e-27
1.04275e-26
2.25276e-26
1.35838e-26
-8.86444e-27
1.45525e-26
4.58454e-26
7.73444e-26
8.97623e-26
9.14766e-26
3.82451e-25
1.27137e-25
-1.36887e-24
-1.74608e-24
-3.41829e-24
-6.96835e-24
-7.61881e-24
-7.2239e-24
-2.65319e-23
-2.72853e-23
-3.80212e-23
-7.14001e-23
-7.5015e-23
-5.65037e-23
-2.92108e-40
0
-2.05562e-23
2.31209e-23
3.79018e-23
4.5858e-23
2.15029e-23
9.84021e-24
3.78339e-24
2.2347e-23
6.87105e-24
-5.0284e-24
-4.88956e-24
-5.52197e-25
-6.12566e-26
1.98876e-26
1.94196e-27
1.95169e-27
1.03862e-28
3.14002e-30
-1.96511e-28
9.59844e-28
4.26219e-28
3.1031e-29
-1.29428e-30
3.51579e-33
5.40042e-35
-4.56071e-06
8.5585e-07
-1.42883e-05
-1.46236e-05
-1.30853e-05
-1.292e-05
-1.26941e-05
0.000375074
-0.00159241
0.000772602
0.000751441
-0.000223877
-0.000688084
-1.6953e-05
-1.26019e-60
3.672e-57
2.97717e-55
7.67696e-50
4.77866e-47
1.1982e-44
-1.68277e-42
1.40384e-40
-2.61243e-39
7.65367e-37
-4.0581e-35
1.22781e-33
1.81262e-32
-4.36962e-30
-5.17542e-29
2.14871e-27
8.24115e-26
1.17591e-24
1.04493e-23
5.7754e-23
2.34115e-22
7.36144e-22
1.93622e-21
4.61565e-21
1.00409e-20
1.9596e-20
3.47741e-20
5.3457e-20
7.22443e-20
8.43285e-20
8.64838e-20
7.87213e-20
6.7906e-20
6.03887e-20
5.47721e-20
4.77037e-20
3.85617e-20
2.76765e-20
1.50013e-20
0
7.65569e-24
-6.69493e-38
4.10857e-37
3.04858e-37
9.50687e-38
-7.11277e-38
-1.16236e-36
-7.08278e-36
-1.20863e-35
-4.80393e-35
-1.30218e-34
-3.30938e-34
-7.48852e-34
-1.56782e-33
-3.83041e-33
-8.0427e-33
-1.90615e-32
-4.02986e-32
-8.14267e-32
-1.44703e-31
-3.03694e-31
-6.58269e-31
-1.06588e-30
-1.06725e-30
-2.16669e-30
-2.08694e-30
6.86927e-32
-2.3863e-30
8.48094e-30
-1.74668e-29
3.85901e-29
6.4767e-29
2.16839e-28
4.0284e-28
6.85951e-28
6.18277e-28
3.04865e-27
7.82746e-27
4.73027e-27
1.72779e-26
1.84684e-26
2.26231e-26
2.27308e-26
9.16541e-26
8.94027e-27
1.41924e-25
8.46113e-26
1.53635e-25
7.19711e-25
-1.67287e-25
-2.5892e-24
-5.53603e-24
-4.7856e-24
-1.62851e-23
-1.35075e-23
-1.52623e-23
-1.81277e-23
-4.6866e-23
-6.33302e-23
-9.4834e-23
-7.58293e-23
-5.17187e-23
2.21404e-23
9.25311e-24
1.59154e-23
3.57805e-23
1.10345e-23
3.38442e-24
7.93666e-24
1.43989e-23
2.24338e-24
-4.96903e-24
-5.98074e-25
-1.90042e-25
2.16123e-26
1.0442e-26
2.05785e-27
-1.33654e-28
-2.97908e-28
-1.40177e-28
-8.69161e-28
0
2.12902e-27
4.97724e-29
1.89443e-30
2.1684e-31
5.39877e-34
-1.73904e-36
2.57456e-40
3.32339e-41
0
0
0
0
0
0
0
2.78958e-21
4.49569e-22
3.78758e-23
1.46908e-22
1.22345e-21
5.38732e-21
0.000211508
0.000142787
-0.000331759
-1.21847e-05
-1.23939e-05
-1.2595e-05
-1.25336e-05
0
0
0
0
0
0
0
0
0
0
0
0
0
0
0
0
0
0
0
0
0
0
0
0
0
0
0
0
0
0
0
0
0
0
0
0
0
0
0
0
0
0
0
0
0
0
0
0
0
0
0
0
0
0
0
0
0
0
0
0
0
0
0
0
0
0
0
0
0
0
0
0
0
0
0
0
0
0
0
0
0
0
0
0
0
0
0
0
0
0
0
0
0
0
0
0
0
0
0
0
0
0
0
0
0
0
0
0
0
0
0
0
0
0
0
0
0
0
0
0
0
0
0
0
0
0
0
0
0
0
0
0
0
0
0
0
0
0
0
0
0
0
0
0
0
0
0
0
0
0
0
0
0
0
0
0
0
0
0
0
0
0
0
0
0
0
0
0
0
0
0
0
0
0
0
0
0
0
0
0
0
0
0
0
0
0
0
0
0
0
1.70588e-31
-7.1646e-29
3.34583e-21
5.99382e-05
0
0
0
0
0
0
0
0
0
-1.13037e-25
2.24693e-21
0
1.97998e-39
0
0
-2.51964e-37
-1.64054e-06
-4.99345e-35
1.49487e-32
-2.88945e-29
1.15117e-28
-5.30376e-27
-2.81306e-26
5.47022e-26
-4.01565e-26
0
0
-7.40087e-26
-5.96153e-26
-6.21692e-26
-9.81417e-26
-1.08045e-25
-5.48453e-26
-1.61925e-25
-1.06222e-24
-2.23912e-23
8.16664e-23
6.35257e-23
2.10286e-23
2.91117e-22
-1.83258e-23
-3.98274e-22
-2.72908e-22
6.13711e-22
1.39278e-21
1.55256e-21
-2.24052e-21
2.81528e-37
1.55514e-36
1.87882e-21
1.17223e-21
-4.21709e-22
-2.3112e-22
-7.68272e-22
-8.10939e-22
-5.86595e-22
-5.22298e-22
-3.73559e-22
-2.5731e-22
-1.69927e-22
-1.22044e-22
-6.07133e-23
-1.79877e-23
-1.14407e-23
-2.84371e-24
1.93361e-24
2.63007e-24
3.82112e-24
2.40282e-24
1.77704e-24
1.21924e-24
7.04442e-25
3.89945e-25
2.30669e-25
1.16695e-25
3.30682e-26
1.18744e-26
3.58396e-27
-3.28585e-27
-2.17708e-27
-2.22001e-27
-1.32372e-27
-8.19908e-28
-5.58196e-28
-2.81716e-28
-1.5843e-28
-8.12146e-29
-3.86632e-29
-1.97871e-29
-9.79089e-30
-4.51352e-30
-1.84254e-30
-7.70349e-31
-3.74677e-31
-9.99774e-32
-4.23442e-32
2.14416e-33
5.14814e-33
1.7855e-33
2.03175e-33
1.29591e-33
6.17286e-34
3.17407e-34
1.45907e-34
9.62978e-35
4.05587e-35
1.90962e-35
1.2389e-35
2.35065e-36
0
0
0
0
0
0
0
0
0
0
0
0
0
0
0
0
0
0
0
0
0
0
0
0
0
0
0
0
0
0
0
0
0
0
0
0
0
0
0
0
0
0
0
0
0
0
0
0
0
0
0
0
0
0
0
0
0
0
0
0
0
0
0
0
0
0
0
0
0
0
0
0
0
0
0
0
0
0
0
0
0
0
0
0
0
0
0
0
0
0
0
0
0
0
0
0
0
0
0
0
0
0
0
0
0
0
0
0
0
0
0
0
0
0
0
0
2.35324e-124
2.99624e-124
3.09613e-121
4.50813e-123
-6.32e-116
-7.90426e-116
-3.98694e-116
-5.06999e-116
-2.89307e-116
-6.65763e-116
-7.74344e-113
-1.81964e-113
-2.10313e-110
-2.17265e-110
-1.7564e-110
-1.31077e-111
-1.83789e-109
-1.96236e-109
-2.64568e-109
4.82326e-109
-3.11745e-109
4.0538e-109
-6.44143e-108
-6.85045e-108
-6.84252e-108
4.63997e-108
-6.31073e-107
-5.52177e-107
-4.37326e-107
-3.58101e-107
-5.72458e-107
-1.66484e-107
-1.88607e-104
-1.49261e-104
-6.82472e-104
-4.1827e-104
-2.76084e-103
-2.87258e-103
-8.09752e-103
2.45648e-102
3.60204e-100
7.48925e-101
1.09022e-97
2.14747e-97
-2.4435e-95
1.03674e-94
-1.32039e-94
4.50187e-94
-9.73769e-93
-1.14538e-92
-1.50747e-92
2.6306e-92
-2.01235e-92
3.11642e-92
-2.92249e-91
-3.27943e-91
-2.01383e-91
-1.55651e-91
-1.40853e-91
-1.03157e-91
-6.46721e-91
-7.53703e-91
-4.23679e-91
-4.6671e-91
-2.74678e-91
-3.07485e-91
-5.13691e-91
-4.16187e-91
-7.16323e-91
-6.93668e-91
-1.33406e-90
3.52312e-90
-1.4664e-90
1.31318e-90
-2.54205e-89
-2.95555e-89
-1.73989e-89
-1.20029e-89
-1.27584e-89
-5.0402e-90
-6.75083e-89
-5.8515e-89
-1.14188e-88
2.51873e-88
-3.21161e-88
9.47071e-88
-5.94772e-87
-4.62931e-87
-8.14482e-87
1.21266e-86
-3.2749e-86
-1.27016e-86
-2.5351e-86
-8.68176e-87
-2.04139e-86
-6.37245e-87
-1.91272e-85
-1.25951e-85
-3.67374e-85
-2.92128e-85
-3.96146e-85
-3.36193e-85
-3.11466e-85
-3.1166e-86
-2.41972e-85
-4.87213e-86
-6.41213e-85
-6.12535e-85
-4.97441e-85
-6.26523e-86
-3.74945e-85
-8.70897e-86
-9.50017e-85