/*--------------------------------*- C++ -*----------------------------------*\
  =========                 |
  \\      /  F ield         | OpenFOAM: The Open Source CFD Toolbox
   \\    /   O peration     | Website:  https://openfoam.org
    \\  /    A nd           | Version:  7
     \\/     M anipulation  |
\*---------------------------------------------------------------------------*/
FoamFile
{
    version     2.0;
    format      ascii;
    class       volScalarField;
    location    "0.82";
    object      T;
}
// * * * * * * * * * * * * * * * * * * * * * * * * * * * * * * * * * * * * * //

dimensions      [0 0 0 1 0 0 0];

internalField   nonuniform List<scalar> 
46572
(
0
0
0
0
0
0
0
0
0
0
0
0
0
0
0
0
0
0
0
0
0
0
0
0
0
0
0
0
0
0
0
0
0
0
0
0
0
0
0
0
0
0
0
0
0
0
0
0
0
0
0
0
0
0
0
0
0
0
0
0
0
0
0
0
0
0
0
0
0
0
0
0
0
0
0
0
0
0
0
0
0
0
0
0
0
0
0
0
0
0
0
0
0
0
0
0
0
0
0
0
0
0
0
0
0
0
0
0
0
0
0
0
0
0
0
0
0
0
0
0
0
0
0
0
0
0
0
0
0
0
0
0
0
0
0
0
0
0
0
0
0
0
0
0
0
0
0
0
0
0
0
0
0
0
0
0
0
0
0
0
0
0
0
0
0
0
0
0
0
0
0
0
0
0
0
0
0
0
0
0
0
0
0
0
0
0
0
0
0
0
0
0
0
0
0
0
0
0
0
0
0
0
0
0
0
0
0
0
0
0
0
0
0
0
0
0
0
0
0
0
0
0
0
0
0
0
0
0
0
0
0
0
0
0
0
0
0
0
0
0
0
0
0
0
0
0
0
0
0
-1.98442e-154
0
4.70707e-143
5.4881e-143
-1.44677e-136
-2.18672e-140
7.85932e-132
6.4712e-134
5.22132e-130
3.84292e-130
2.6882e-128
-1.54292e-127
2.24861e-124
-1.2155e-126
1.18273e-120
-3.26473e-122
1.26128e-117
-2.34447e-119
1.48326e-115
1.02963e-115
5.28527e-115
5.56732e-115
4.04308e-115
4.62179e-115
-1.00009e-114
4.84379e-114
1.38074e-112
2.44673e-112
-1.95913e-112
4.42858e-112
-4.62147e-111
1.65691e-110
-1.96075e-109
6.9044e-109
-4.24352e-108
7.88891e-109
-7.23351e-107
1.09127e-106
-1.73426e-104
-1.9956e-104
-1.85446e-104
-2.20633e-104
-1.21216e-104
-1.38133e-104
-1.45524e-104
-4.29741e-106
-2.04123e-102
-2.44632e-102
-1.30288e-102
-1.55178e-102
-2.14072e-102
3.84031e-102
-2.98956e-101
-2.93234e-101
-3.88902e-101
-4.33235e-101
-3.59499e-101
-3.63628e-101
-2.99011e-101
-8.69725e-102
-3.22308e-100
-3.75854e-100
-6.79854e-100
-7.63923e-100
-4.49746e-100
-5.0558e-100
-3.46316e-100
-3.69443e-100
-6.76267e-99
-7.67258e-99
-4.49628e-99
-4.69267e-99
-3.02832e-99
-2.90008e-99
-2.18293e-99
-1.23153e-99
-1.69986e-99
-5.14476e-100
-5.0893e-98
-6.89946e-99
-4.98501e-98
-1.61952e-99
-1.66742e-96
-1.2865e-96
-3.83743e-96
-4.18518e-96
-2.48918e-96
-2.65992e-96
-2.82654e-96
2.35171e-96
-1.05271e-95
-4.58637e-96
-2.30805e-95
-6.04049e-96
-6.07494e-95
-7.82244e-96
-6.63858e-95
3.17406e-95
-3.98897e-94
-3.71786e-94
-2.6564e-94
-2.42694e-94
-1.95007e-94
-9.56493e-95
-2.66503e-94
-2.2953e-94
-1.84835e-94
-1.49732e-94
-1.53283e-94
-2.18258e-95
-8.15649e-94
-8.04542e-94
-5.38702e-94
-5.12521e-94
-4.46311e-94
-5.25947e-95
-8.09636e-94
-4.51992e-94
-8.74348e-94
-6.909e-94
-7.51881e-94
-3.65375e-94
-7.22971e-94
1.01414e-94
-2.22597e-93
-2.01678e-93
-2.47366e-93
1.78274e-93
-3.36367e-93
-3.49859e-94
-3.00868e-93
8.21595e-94
-2.29716e-93
-9.40293e-94
-1.37198e-93
-2.42123e-93
-8.47019e-94
-6.35994e-93
-1.59001e-93
-1.56335e-92
6.89368e-93
-3.80287e-92
1.64874e-92
-3.59508e-92
2.21495e-92
-3.93765e-92
5.51933e-92
-7.55562e-92
8.7391e-92
-2.16887e-92
7.91458e-92
-2.24175e-92
5.75124e-92
2.35627e-92
5.24128e-92
1.06048e-91
-8.63261e-94
2.57733e-91
-1.70246e-91
6.4207e-91
-4.17252e-91
1.22403e-90
-7.02398e-91
1.85406e-90
-3.0256e-90
6.26446e-90
-4.05869e-90
6.79162e-90
-5.01827e-90
7.68641e-90
-5.39331e-90
7.29304e-90
-1.01356e-89
1.19322e-89
-1.35273e-89
7.38068e-90
-1.11797e-89
9.80985e-90
-1.78868e-89
3.04987e-89
-3.00716e-89
4.40431e-89
-4.14002e-89
5.19568e-89
-5.65613e-89
9.17581e-89
-9.70741e-89
1.65335e-88
-1.18187e-88
1.33895e-88
-1.9542e-88
2.24168e-88
-1.99654e-88
1.55198e-88
-2.09568e-88
5.38051e-89
-1.99694e-88
9.61379e-89
-2.10002e-88
1.87335e-88
-6.42637e-88
1.71078e-88
-5.42282e-88
5.07009e-88
-9.61858e-88
1.70585e-87
-1.63548e-87
1.86895e-87
-1.92628e-87
1.25017e-87
-1.99309e-87
1.45752e-87
-2.25254e-87
2.2006e-87
-2.51069e-87
1.96559e-87
-2.86118e-87
2.48175e-87
-2.84165e-87
1.34722e-87
-2.60728e-87
6.17546e-88
-2.28197e-87
6.90812e-88
-2.02955e-87
4.58246e-88
-1.88468e-87
4.77762e-88
-2.45883e-87
2.72064e-87
-3.39699e-87
1.11774e-87
-3.58313e-87
2.4666e-87
-3.33687e-87
2.18743e-87
-5.24378e-87
3.5431e-87
-6.68235e-87
3.55054e-88
-5.49265e-87
1.81252e-87
-6.00107e-87
4.42581e-87
-6.13688e-87
2.69468e-87
-7.68493e-87
6.77105e-87
-1.11557e-86
1.13212e-86
-1.43988e-86
1.74831e-86
-1.43812e-86
1.44402e-86
-1.58696e-86
1.80635e-86
-1.65898e-86
1.76734e-86
-2.14133e-86
1.78989e-86
-1.97585e-86
1.21219e-86
-2.98311e-86
2.01144e-86
-3.81112e-86
5.35193e-87
-3.16975e-86
1.24814e-86
-3.36079e-86
2.55145e-86
-3.92568e-86
2.5486e-86
-3.92065e-86
1.6198e-86
-3.70415e-86
2.03402e-86
-3.76231e-86
1.61337e-86
-4.31115e-86
1.06383e-87
-3.53552e-86
3.21231e-87
-3.20246e-86
5.30705e-87
-3.51218e-86
1.47021e-87
-2.87254e-86
6.94994e-88
-2.44005e-86
4.44355e-87
-2.91806e-86
-4.64697e-87
-2.17575e-86
5.98599e-89
-1.92681e-86
5.49317e-87
-1.79392e-86
5.28354e-87
-1.58567e-86
3.24222e-87
-1.31444e-86
3.06727e-87
-1.19311e-86
1.72292e-87
-1.14349e-86
-2.37501e-87
-9.41309e-87
4.37128e-88
-7.96687e-87
5.97259e-88
-7.8929e-87
-5.4375e-88
-6.29998e-86
2.64309e-86
4.58192e-85
-2.81085e-85
9.28533e-84
7.21009e-84
1.82669e-82
1.81224e-82
3.31796e-81
1.69208e-81
5.29828e-80
5.98217e-80
-4.15802e-78
-1.19972e-77
2.00434e-77
4.89749e-76
-9.72269e-76
-1.74596e-75
-2.20332e-74
1.87134e-74
1.95756e-73
1.90543e-73
-1.66631e-72
1.10428e-71
-4.02962e-71
-4.07648e-71
-2.55767e-69
3.16601e-69
8.96059e-68
8.71499e-68
1.14555e-66
8.84929e-67
1.96186e-65
1.05483e-66
3.95465e-66
-1.7199e-05
-6.0272e-06
-3.17475e-07
-8.88752e-09
6.50113e-10
3.04339e-11
1.34531e-13
-9.54889e-15
-1.14269e-16
-3.78341e-19
-4.19664e-21
1.25291e-22
-9.46795e-25
-2.5904e-26
3.41541e-28
1.14061e-30
-8.98445e-33
-2.47827e-35
3.15745e-37
-1.33064e-40
-1.17797e-41
9.06631e-44
-3.96275e-46
1.00247e-48
-2.66694e-52
-1.28519e-53
1.23075e-55
-1.44661e-57
7.11662e-60
-2.7796e-62
-1.82262e-05
3.11608e-10
-5.83214e-10
1.21515e-09
5.45385e-09
-1.05273e-09
-3.40883e-08
-3.58794e-08
1.04939e-07
2.9531e-07
-4.55472e-07
-4.05399e-06
-1.16129e-05
-1.64753e-05
7.23429e-06
0.000124497
0.000464609
0.00123025
0.00272087
0.00531958
0.00940245
0.0156047
0.0242312
0.0352532
0.0496041
0.0663029
0.0852584
0.105288
0.126641
0.146927
0.164123
0.176605
0.188563
0.193207
0.191429
0.182941
0.169693
0.152624
0.129445
0.103042
0.0752772
0.0471895
0.0192686
-0.00484494
-0.0244427
-0.0432902
-0.0576698
-0.066285
-0.0738602
-0.0771233
-0.0758499
-0.0724241
-0.0682318
-0.0641434
-0.0578328
-0.0498564
-0.0437642
-0.037002
-0.0307455
-0.0253631
-0.0198415
-0.0163002
-0.0129566
-0.0100123
-0.00774117
-0.0059745
-0.00460875
-0.00349372
-0.00250872
-0.00188547
-0.00136785
-0.000972438
-0.000692577
-0.000497526
-0.000346677
-0.000239946
-0.000162223
-0.000113905
-7.7662e-05
-5.43401e-05
-2.86333e-05
-1.89336e-05
4.55019e-13
8.41157e-12
3.41681e-12
8.25813e-12
1.95861e-11
-1.81543e-11
1.97913e-11
-2.87443e-11
-1.75381e-11
2.93778e-10
3.91808e-10
5.37172e-11
-1.10171e-11
5.56439e-12
-6.90615e-12
1.2636e-12
-2.15355e-12
-6.5624e-12
7.71437e-12
-7.37194e-12
1.42089e-12
-2.18422e-12
1.76929e-11
4.38474e-12
2.20939e-11
-1.56988e-11
-1.99093e-11
2.72858e-11
1.30363e-11
-2.56251e-12
1.89647e-11
-2.3773e-11
-1.4376e-11
-2.82004e-11
-2.27302e-11
-7.99527e-12
-2.49127e-11
2.4131e-11
8.23097e-12
-1.61822e-11
3.39239e-12
-1.79985e-11
-9.11397e-12
-2.70932e-11
1.0463e-12
6.33585e-11
2.87172e-11
1.29059e-10
1.22489e-11
-5.19817e-11
1.3489e-10
-1.122e-10
-3.85577e-11
-2.33356e-10
-2.02281e-10
-3.19842e-10
-3.5222e-10
-1.75745e-12
-2.41783e-10
4.3693e-10
-2.00477e-11
6.40641e-10
2.92212e-10
3.54333e-10
3.36534e-10
-9.05132e-10
-2.7605e-10
-2.31815e-09
-1.35457e-09
-2.52072e-09
-2.34367e-09
-1.65657e-09
-2.22228e-09
-1.0485e-10
-6.75498e-10
3.48495e-10
1.05897e-09
-2.5457e-09
6.04375e-10
-1.06349e-08
-6.29505e-09
-2.31832e-08
-2.07354e-08
-3.42296e-08
-4.14481e-08
-2.48717e-08
-6.11901e-08
2.03754e-08
-6.7043e-08
1.22204e-07
-4.0656e-08
2.75369e-07
3.19172e-08
4.44347e-07
1.2749e-07
5.43869e-07
2.03012e-07
4.1187e-07
1.33583e-07
-1.31647e-07
-2.73283e-07
-1.285e-06
-1.26592e-06
-3.02674e-06
-3.17548e-06
-5.1939e-06
-6.23809e-06
-6.87376e-06
-1.04515e-05
-6.28111e-06
-1.53495e-05
-3.46883e-07
-2.0131e-05
1.65544e-05
-2.20198e-05
5.26416e-05
-1.90394e-05
0.000118225
-1.34548e-06
0.000229269
3.35238e-05
0.000407677
0.000101792
0.000672366
0.000216174
0.00105567
0.000387105
0.00160811
0.000648824
0.00234421
0.00103574
0.00331898
0.00153787
0.00460455
0.00222931
0.00619869
0.00311925
0.0082172
0.00421468
0.0106003
0.00562629
0.013621
0.00726295
0.0170397
0.00937201
0.0210411
0.011678
0.0258683
0.0145326
0.03101
0.0177115
0.0367959
0.0210998
0.0436516
0.0251252
0.0507984
0.0296921
0.058346
0.0341571
0.067062
0.0393332
0.0754372
0.044443
0.0841901
0.0493537
0.0939598
0.0548317
0.102224
0.0600469
0.112232
0.0653925
0.122344
0.0718919
0.131106
0.077144
0.139958
0.0813461
0.146833
0.0853395
0.155077
0.088879
0.16141
0.0923503
0.165838
0.0934443
0.171421
0.0953732
0.173133
0.0948227
0.173874
0.0926492
0.175221
0.0908024
0.17152
0.086876
0.170203
0.0827698
0.167315
0.0798975
0.161415
0.0741197
0.155033
0.0664379
0.14598
0.0585043
0.138226
0.0492886
0.127711
0.0406721
0.116481
0.0296006
0.105227
0.0205427
0.0927185
0.00891388
0.0797507
-0.00248191
0.067321
-0.0127722
0.0541123
-0.0231247
0.0414328
-0.0344438
0.0281264
-0.0439578
0.0152903
-0.0537095
0.00377037
-0.0633864
-0.0070606
-0.0717937
-0.0175731
-0.0800005
-0.0278479
-0.0867147
-0.0362847
-0.0931061
-0.0462831
-0.0982359
-0.0519992
-0.102738
-0.0574572
-0.105838
-0.0640171
-0.108757
-0.0689312
-0.110839
-0.0711595
-0.111506
-0.0754144
-0.111887
-0.0757166
-0.110819
-0.0758446
-0.108863
-0.0775086
-0.106968
-0.0749796
-0.10353
-0.074526
-0.101007
-0.0743895
-0.0986339
-0.072644
-0.0949929
-0.0704572
-0.0909494
-0.0669748
-0.0862952
-0.0644675
-0.0823052
-0.0618904
-0.0778807
-0.0574731
-0.0728506
-0.0555866
-0.0684901
-0.0510828
-0.063504
-0.0472308
-0.0586391
-0.0448584
-0.0548857
-0.0414805
-0.0506671
-0.0376421
-0.0461664
-0.0350884
-0.0424995
-0.0321411
-0.0388075
-0.0293914
-0.0353043
-0.0264547
-0.0319145
-0.0240783
-0.0289552
-0.0218398
-0.0261183
-0.0194434
-0.0233269
-0.017798
-0.0210598
-0.0156435
-0.0186469
-0.0138258
-0.0164929
-0.0124701
-0.0147553
-0.0111242
-0.0131314
-0.00967842
-0.0115079
-0.00864128
-0.010193
-0.00758406
-0.00894323
-0.00664996
-0.00782368
-0.00576903
-0.00680305
-0.00503596
-0.00594945
-0.00439194
-0.0051679
-0.00375664
-0.00442454
-0.0032101
-0.0037796
-0.00279096
-0.00328473
-0.0024134
-0.00283922
-0.00210113
-0.00246512
-0.00181349
-0.00212383
-0.00152586
-0.00179987
-0.00132572
-0.00154683
-0.00111195
-0.00130222
-0.000931428
-0.00109658
-0.000798038
-0.000932536
-0.000658612
-0.000774637
-0.000559172
-0.00065731
-0.000477881
-0.000560528
-0.000401677
-0.000471847
-0.000337661
-0.000395979
-0.000280724
-0.000330671
-0.000235964
-0.000277757
-0.000197878
-0.000231851
-0.000162164
-0.000191229
-0.000137052
-0.000160476
-0.000112816
-0.000132662
-9.37901e-05
-0.000109909
-7.91669e-05
-9.1646e-05
-6.47866e-05
-7.46085e-05
-5.10496e-05
-5.988e-05
-4.17912e-05
-5.06727e-05
-4.04773e-05
-2.88244e-05
-4.40947e-05
-2.87237e-20
5.03401e-19
1.27982e-16
1.19531e-14
3.58197e-13
-2.81762e-12
6.1499e-11
5.81458e-09
2.35257e-07
2.88904e-08
2.94277e-06
2.20095e-06
8.6651e-07
0
-3.81047e-44
-1.14319e-36
-2.58836e-31
-6.72408e-28
-4.37155e-26
2.00463e-25
3.02858e-24
5.42654e-24
-7.47139e-25
9.22325e-24
6.40889e-24
2.27805e-23
3.82576e-24
-5.06059e-23
6.75186e-23
-1.56511e-23
-6.33951e-24
-2.49556e-23
-3.13245e-23
-6.91791e-23
-1.0575e-22
-9.0341e-23
-7.05589e-23
-5.92317e-23
-4.87355e-23
-3.94291e-23
-1.94714e-22
-2.67086e-22
-2.27013e-22
-1.7983e-22
-1.18134e-22
2.53049e-23
-4.01188e-23
-2.65331e-22
-6.67084e-22
-8.09356e-22
-9.86855e-22
-8.2261e-22
-6.88473e-22
-2.36705e-22
5.21062e-23
5.8604e-22
8.61758e-22
7.0293e-22
7.32029e-22
5.39178e-22
4.14367e-22
2.61877e-22
8.97488e-23
-2.76762e-23
-9.84178e-23
-1.03238e-22
-1.19874e-22
-9.52523e-23
-7.64625e-23
-6.19098e-23
-3.84174e-23
-2.76738e-23
-1.84848e-23
-8.95723e-24
-5.2864e-24
-3.03358e-24
-1.23066e-24
-8.05367e-26
6.97697e-25
7.58226e-25
6.94213e-25
5.45687e-25
4.34356e-25
3.83713e-25
3.05798e-25
3.56295e-25
2.62923e-25
2.84444e-25
2.50482e-25
1.14388e-25
7.15152e-26
2.91833e-26
-4.43121e-27
-2.57411e-26
-2.91664e-26
-2.67847e-26
-2.00419e-26
-1.21144e-26
-6.60308e-27
-2.34682e-27
1.2113e-27
2.78211e-27
2.81531e-27
2.56961e-27
1.44636e-27
1.40327e-27
1.04232e-27
6.16087e-28
2.08701e-28
1.81331e-27
1.40354e-26
1.16125e-23
-1.73713e-21
-7.03054e-66
6.81721e-08
4.47949e-08
2.70919e-06
1.45406e-06
-5.31208e-07
-1.19247e-08
-1.91325e-10
-1.71522e-10
-3.61664e-12
3.95497e-14
1.28668e-15
7.54029e-18
3.51561e-20
-1.5352e-22
-1.22941e-23
3.04636e-25
-5.47161e-28
-3.16077e-29
4.80758e-32
6.29546e-34
-9.1511e-37
-2.51289e-38
1.92605e-40
-5.78942e-43
-7.65915e-46
2.08104e-47
-1.66064e-49
1.48899e-51
-1.48244e-53
1.47274e-55
-9.33377e-58
4.72378e-60
2.22332e-12
-1.28125e-62
-9.62687e-11
-1.6731e-11
3.75543e-09
5.25722e-09
-1.47725e-08
-4.61888e-08
1.04552e-08
2.26388e-07
1.45246e-07
-1.76528e-06
-7.41193e-06
-1.53077e-05
-1.10515e-05
4.82184e-05
0.000257767
0.000776703
0.00185811
0.0038851
0.00714751
0.0122444
0.0194593
0.0292476
0.042024
0.0572004
0.0747431
0.095729
0.115092
0.135309
0.155804
0.17085
0.18417
0.190588
0.190898
0.189894
0.17684
0.161969
0.140337
0.115159
0.0891782
0.0610879
0.0340583
0.00733017
-0.0145359
-0.0346667
-0.0511571
-0.0609764
-0.0720911
-0.0742244
-0.0745678
-0.0759496
-0.0707361
-0.0663606
-0.0597367
-0.0523343
-0.047142
-0.0391059
-0.032844
-0.0275565
-0.0223426
-0.0180411
-0.0146573
-0.0111828
-0.00902398
-0.00681873
-0.00525023
-0.00393914
-0.00289942
-0.00217029
-0.00157372
-0.00112939
-0.000836463
-0.000581559
-0.000405396
-0.000284886
-0.000193715
-0.000136146
-9.18748e-05
-6.41722e-05
-4.98638e-05
-7.23553e-12
-7.83668e-12
-1.50859e-12
-1.28075e-11
-6.58973e-12
-2.30539e-11
5.92973e-12
6.28078e-11
-4.1332e-11
-3.38799e-11
1.63589e-10
-2.74153e-12
-8.89459e-13
-1.17157e-12
-2.15403e-12
1.8545e-12
1.50385e-13
-1.04107e-11
9.08568e-12
-6.27039e-12
-1.98811e-14
2.3167e-12
-8.34381e-18
-1.39319e-15
-8.34915e-14
-6.72833e-13
9.89978e-12
-6.78072e-10
-4.39792e-08
-7.53267e-07
1.72223e-16
-3.14142e-50
-3.8702e-40
-3.32357e-34
-3.44569e-29
-5.66469e-28
2.19044e-25
-2.32354e-24
-2.4641e-24
-2.54064e-24
-1.68391e-24
-1.5867e-24
-1.50919e-23
-1.35762e-23
-1.0331e-23
-1.67861e-23
-9.59094e-23
-3.14685e-23
-4.21722e-23
-6.60909e-23
-3.88366e-23
-8.56517e-23
-1.34632e-22
-8.33966e-23
-1.34932e-22
-9.0072e-23
-9.91533e-23
-1.01143e-22
-7.36964e-23
-2.71393e-22
-3.62862e-22
-1.95039e-22
-4.44953e-23
-2.55615e-23
-1.40694e-22
-4.29486e-22
-8.63984e-22
-1.08056e-21
-1.15009e-21
-7.49069e-22
-4.95177e-22
9.25951e-23
4.54711e-22
7.06119e-22
1.01669e-21
8.96283e-22
7.48463e-22
4.99948e-22
3.77462e-22
1.9715e-22
4.69915e-23
-4.51405e-23
-1.45419e-22
-1.05566e-22
-1.31647e-22
-8.20788e-23
-7.35276e-23
-5.57758e-23
-3.53856e-23
-2.1944e-23
-1.47929e-23
-6.85655e-24
-4.158e-24
-1.89961e-24
-6.02719e-25
3.40888e-25
7.25899e-25
6.4709e-25
8.48934e-25
4.48881e-25
4.35563e-25
3.086e-25
4.16303e-25
4.04106e-25
3.47168e-25
2.7114e-25
2.24494e-25
9.50099e-26
5.46434e-26
1.08999e-26
-1.44705e-26
-3.31363e-26
-3.03344e-26
-2.3841e-26
-1.689e-26
-9.59866e-27
-3.60603e-27
1.67276e-28
1.97315e-27
3.47388e-27
3.1969e-27
2.78947e-27
1.60141e-27
1.31041e-27
8.61258e-28
4.42009e-28
2.10576e-28
-6.7533e-27
-6.22131e-25
5.91184e-22
9.22376e-65
0
-4.94868e-12
1.06202e-13
2.37985e-15
1.07885e-17
6.37285e-20
-6.53553e-22
-1.94913e-23
5.92582e-25
-1.57166e-27
-5.28185e-29
7.61526e-32
1.05789e-33
-1.50807e-36
-4.19328e-38
3.36951e-40
-1.0204e-42
-1.0972e-45
3.62572e-47
-2.90973e-49
2.79437e-51
-2.86871e-53
2.7164e-55
-1.7457e-57
9.37854e-60
-3.299e-62
-1.02651e-09
1.25137e-09
5.82912e-09
-4.76038e-09
-3.65635e-08
-2.22608e-08
1.68271e-07
3.53782e-07
-5.96494e-07
-5.18848e-06
-1.59152e-05
-3.01249e-05
-3.06648e-05
2.86934e-05
0.00024574
0.000762232
0.00182163
0.00362523
0.00660965
0.0109771
0.0168745
0.0246129
0.0342104
0.0450492
0.058014
0.0692312
0.0814497
0.0927629
0.0988125
0.104148
0.105688
0.101006
0.0961389
0.0806405
0.0655738
0.045255
0.0219517
0.000438564
-0.0253853
-0.04808
-0.0679175
-0.085245
-0.0982367
-0.108505
-0.11381
-0.116823
-0.115018
-0.110214
-0.105381
-0.0960788
-0.0883711
-0.0787271
-0.0683293
-0.0599172
-0.0499736
-0.0414184
-0.0344322
-0.0278647
-0.0222494
-0.017944
-0.0138157
-0.0109223
-0.00824522
-0.00636968
-0.00479104
-0.00353719
-0.00262428
-0.00190866
-0.00137119
-0.00100408
-0.000699142
-0.000491288
-0.00034518
-0.000235622
-0.000164266
-0.000111897
-7.76858e-05
-5.71337e-05
9.49763e-12
2.60045e-12
1.55739e-11
8.79311e-12
7.47883e-12
5.36897e-11
5.22849e-12
-3.51842e-11
2.44377e-12
-1.90294e-12
1.63703e-12
-3.63321e-13
-6.65527e-13
-3.61844e-12
5.77274e-12
-4.58081e-12
1.56775e-12
-4.46389e-13
-2.84808e-12
8.35579e-13
-2.47178e-12
4.41924e-11
8.2427e-09
4.19225e-07
0
8.08689e-35
5.55625e-30
4.13663e-27
1.06544e-25
4.12551e-24
1.43546e-24
6.5968e-24
2.04804e-23
-2.45286e-23
1.34928e-24
-1.99583e-23
-7.98835e-23
-2.46824e-24
-1.78942e-22
1.624e-23
3.00088e-23
9.61627e-23
1.234e-22
7.35353e-23
1.42424e-22
1.52317e-22
5.12632e-23
1.66682e-22
1.47595e-22
-4.3753e-23
2.05811e-22
-1.24352e-22
-4.23552e-22
-1.13614e-22
-1.1301e-22
2.63628e-22
7.56542e-22
8.79652e-22
3.97707e-22
6.10162e-23
-6.36721e-22
-8.96468e-22
-1.57125e-21
-1.55616e-21
-1.68952e-21
-1.35615e-21
-5.53963e-22
-3.69623e-22
-1.03124e-23
1.59987e-22
3.77445e-22
3.77731e-22
3.55654e-22
2.79159e-22
1.46267e-22
1.75189e-22
3.56835e-23
4.43191e-23
3.18041e-24
-1.20462e-23
-8.00437e-24
-4.5008e-24
-8.67469e-24
-3.65088e-24
-2.82117e-24
-1.92654e-24
-1.15923e-24
-1.24096e-24
-3.89175e-25
-2.61e-25
-1.40064e-25
-3.12082e-25
-7.3227e-25
-5.54643e-25
-3.57872e-25
-4.19107e-25
-3.65054e-25
-1.64212e-25
2.02874e-27
-4.63006e-26
5.75031e-26
5.83224e-26
4.74172e-26
2.72442e-26
1.32611e-26
-3.30742e-27
-8.45016e-27
-8.35765e-27
-1.20264e-26
-9.57065e-27
-6.17545e-27
-3.83137e-27
-7.52669e-28
-1.98173e-28
-1.33008e-27
3.53428e-28
4.1169e-28
9.87627e-28
1.03414e-27
-2.28134e-26
1.1994e-25
-1.49596e-22
-1.87578e-16
-5.73348e-19
-6.47683e-21
2.57747e-22
-2.38431e-24
-4.28519e-26
6.17403e-28
1.85808e-30
-1.46243e-32
-4.52517e-35
5.19982e-37
-2.60533e-40
-1.92922e-41
1.52469e-43
-7.09052e-46
1.6893e-48
-1.2446e-51
-1.24747e-53
1.37301e-55
-2.34207e-57
1.20702e-59
-5.19546e-62
-9.24925e-10
-6.49009e-10
3.79509e-09
3.00014e-09
-2.02259e-08
-4.43609e-08
5.08788e-08
3.0016e-07
1.61955e-07
-2.26583e-06
-9.71629e-06
-2.32686e-05
-3.3576e-05
-1.15358e-05
0.00011448
0.000455619
0.00121361
0.00263827
0.00493679
0.00864185
0.0137396
0.0204384
0.0293599
0.0395626
0.0512788
0.0636385
0.0759882
0.0875223
0.0969888
0.101592
0.106554
0.105334
0.0990189
0.0887593
0.0732251
0.0570253
0.0352075
0.0111215
-0.0121331
-0.0359618
-0.0573555
-0.0766205
-0.0917103
-0.103761
-0.11153
-0.115404
-0.116469
-0.113394
-0.10779
-0.100495
-0.0923205
-0.0842092
-0.0741064
-0.064022
-0.0551745
-0.0459464
-0.0379439
-0.0312971
-0.0246821
-0.0200309
-0.0158212
-0.0122686
-0.00945355
-0.00724588
-0.00558293
-0.00418404
-0.00303753
-0.00226476
-0.00164056
-0.0011758
-0.000832846
-0.000595726
-0.000415168
-0.000288238
-0.000195988
-0.000136981
-9.37646e-05
-6.53745e-05
-1.74522e-12
-5.52271e-12
-1.40722e-11
-5.32684e-12
-2.43285e-11
-3.15373e-11
1.09014e-11
-1.74166e-10
4.00613e-11
-2.87883e-12
1.0534e-12
-5.23758e-13
2.77123e-12
-7.63876e-13
-3.68422e-12
3.54804e-12
-2.61037e-12
-9.22238e-18
-2.32741e-15
-1.67139e-13
-2.54176e-12
2.73315e-11
-9.33008e-10
-7.01107e-08
-1.92795e-06
4.36536e-38
1.73882e-32
3.81231e-28
1.88842e-26
-1.61331e-24
-4.10594e-24
-8.56902e-24
-2.85205e-23
-1.76389e-23
8.57023e-24
1.01687e-23
6.56352e-23
1.02414e-22
1.01089e-22
1.58963e-22
4.09599e-23
7.62865e-23
1.61903e-22
7.02916e-23
9.47434e-23
1.67947e-22
1.56925e-22
3.16866e-22
9.56223e-23
-7.38624e-25
9.41469e-23
-7.50161e-23
-1.03514e-22
7.41984e-23
-1.33105e-22
1.39846e-22
4.99552e-22
1.00356e-21
8.20965e-22
5.14026e-22
-1.34611e-23
-4.61071e-22
-1.4126e-21
-1.34459e-21
-1.75343e-21
-1.2966e-21
-8.68601e-22
-7.47313e-22
-1.82974e-22
1.06193e-23
2.41511e-22
3.14105e-22
3.21475e-22
2.91676e-22
2.12216e-22
1.61438e-22
5.79868e-23
3.70913e-23
3.57138e-23
-1.31755e-23
-1.31718e-24
-7.20584e-24
-8.89884e-24
-4.97154e-24
-3.34015e-24
-3.33158e-24
-2.10121e-24
-1.6487e-24
-1.27752e-25
-5.74008e-26
-6.80965e-26
-1.44864e-25
-3.68724e-25
-2.34298e-25
-6.3349e-25
-3.88757e-25
-4.86135e-25
-1.61286e-25
2.96745e-26
-8.0854e-26
4.59287e-26
7.79731e-26
6.52845e-26
4.05395e-26
1.61052e-26
2.72883e-27
-5.47956e-27
-7.41617e-27
-1.44099e-26
-1.19457e-26
-7.84178e-27
-5.53603e-27
-2.58629e-27
-1.48615e-27
-3.01425e-27
-4.59396e-28
-1.57883e-28
7.53048e-28
9.6038e-28
1.36966e-27
7.69069e-26
7.9101e-24
-2.63161e-09
-7.34385e-14
5.28536e-11
1.58911e-09
-3.4298e-10
1.28899e-12
-1.66939e-10
-4.43432e-12
4.03569e-12
4.24625e-19
2.30191e-14
1.12113e-46
1.06557e-41
0
0
0
0
0
0
0
0
0
0
0
0
0
0
0
0
0
0
0
0
0
0
0
0
0
0
0
0
0
0
0
0
0
0
0
0
0
0
0
0
0
0
0
0
0
0
0
0
0
0
0
0
0
0
0
0
0
0
0
0
0
0
0
0
0
0
0
0
0
0
0
0
0
0
0
0
0
0
0
0
0
0
0
0
0
0
0
0
0
0
0
0
0
0
0
0
0
0
0
0
0
0
0
0
0
0
0
0
0
0
0
0
0
0
0
0
0
0
0
0
0
0
0
0
0
0
0
0
0
0
0
0
0
0
0
0
0
0
0
0
0
0
0
0
0
0
0
0
0
0
0
0
0
0
0
0
0
0
0
0
0
0
0
0
0
0
0
0
0
0
0
0
0
0
0
0
0
0
0
0
0
0
0
0
0
0
0
0
0
0
0
0
0
0
0
5.6125e-13
0
0
0
0
0
0
0
0
0
0
0
0
0
0
0
0
0
0
0
0
0
0
0
0
0
0
0
0
0
0
0
0
0
0
0
0
0
0
0
0
0
0
0
0
0
0
0
0
0
0
1.02891e-140
-3.62791e-152
-1.67977e-134
-3.87979e-135
5.88936e-132
9.05527e-132
3.69271e-127
2.10833e-129
-1.27991e-123
-1.61383e-123
-1.24096e-122
4.91661e-122
7.36255e-119
9.86866e-121
1.60604e-115
4.52035e-118
1.6951e-113
1.61489e-113
2.73496e-113
9.59616e-114
2.82456e-113
-1.46383e-113
8.0379e-112
1.88523e-111
2.70372e-110
4.87641e-110
-7.80398e-110
5.107e-109
-2.19098e-109
6.5053e-108
-2.08469e-106
-2.42667e-106
-2.62828e-105
6.32526e-105
-9.94301e-104
-1.1189e-103
-1.3579e-102
-1.58065e-102
-8.80271e-103
-9.72057e-103
-1.10713e-102
1.6083e-102
-9.66498e-102
-9.77725e-102
-9.32213e-101
-1.07646e-100
-7.34441e-101
-6.56393e-101
-4.68051e-99
-5.45315e-99
-5.93437e-99
-6.86611e-99
-3.88278e-99
-4.43327e-99
-5.62865e-99
-3.68636e-99
-1.6906e-98
-1.92432e-98
-1.64092e-98
-1.78868e-98
-5.06196e-98
-5.47498e-98
-3.31522e-98
-3.46456e-98
-2.75093e-98
-9.68048e-99
-4.97246e-97
-5.99482e-97
-5.33814e-97
6.40284e-97
-5.34933e-97
3.91126e-97
-7.7297e-97
-7.41941e-98
-6.42118e-97
1.76957e-97
-2.00933e-95
5.82685e-96
-1.78286e-95
8.56121e-97
-2.19668e-94
-2.21585e-94
-1.78322e-94
-1.5649e-94
-1.36604e-94
-8.41808e-95
-9.33754e-94
-5.7995e-94
-1.36148e-93
-9.5577e-94
-3.38928e-93
6.63128e-93
-9.75489e-93
-4.05002e-93
-1.55466e-92
-1.3593e-92
-1.94475e-92
-1.70454e-92
-1.32572e-92
-1.07435e-92
-2.09434e-92
-1.07764e-92
-1.53383e-92
-6.68243e-93
-1.18703e-92
-2.37226e-93
-2.23332e-92
-1.64255e-92
-3.28374e-92
-2.99256e-92
-2.31844e-92
-1.88639e-92
-6.81238e-92
-5.46948e-92
-8.34684e-92
-7.84323e-92
-5.77378e-92
-4.67922e-92
-6.68426e-92
3.43848e-93
-1.13897e-91
-7.82142e-92
-8.89315e-92
-2.6194e-92
-4.06802e-91
-2.43611e-91
-3.08216e-91
-1.50608e-91
-2.58903e-91
-7.14623e-92
-1.60808e-91
-1.74618e-91
-1.53445e-91
-3.3396e-91
-1.1778e-91
-4.55764e-91
-7.40327e-93
-8.63578e-91
2.29743e-91
-2.07398e-90
7.48234e-91
-2.43634e-90
1.19737e-90
-2.06054e-90
2.25052e-90
-2.44499e-90
2.69754e-90
-3.2361e-90
2.72136e-90
-6.69959e-91
2.91854e-90
3.07052e-90
2.45603e-90
6.14305e-90
4.43124e-92
1.14923e-89
-1.18323e-89
4.423e-89
-2.85292e-89
6.40055e-89
-4.89208e-89
1.09813e-88
-1.3292e-88
2.06762e-88
-1.73159e-88
2.85623e-88
-2.16614e-88
3.0046e-88
-2.28987e-88
2.5544e-88
-3.31618e-88
2.84546e-88
-3.49868e-88
3.57426e-88
-3.5497e-88
3.92539e-88
-8.08802e-88
1.22752e-87
-1.30139e-87
1.63674e-87
-1.85106e-87
2.67591e-87
-3.00707e-87
4.39633e-87
-5.09681e-87
3.08017e-87
-5.22482e-87
1.91485e-87
-8.45828e-87
-6.26553e-88
-7.5214e-87
4.12716e-87
-6.2692e-87
3.43516e-87
-7.12862e-87
8.4241e-87
-9.24994e-87
1.04505e-86
-2.17704e-86
1.9083e-86
-2.69436e-86
2.882e-86
-5.95779e-86
3.81351e-86
-8.06983e-86
4.21437e-86
-7.71866e-86
3.75288e-86
-8.37111e-86
6.18393e-86
-1.03322e-85
2.40225e-86
-1.07248e-85
4.971e-86
-1.23976e-85
-8.53635e-87
-1.02714e-85
1.41185e-86
-8.34085e-86
1.92115e-86
-7.62292e-86
3.06264e-86
-6.58278e-86
3.71475e-86
-6.64904e-86
5.78257e-86
-1.16127e-85
3.61784e-86
-1.14369e-85
8.27068e-86
-1.40016e-85
7.91519e-86
-1.33029e-85
8.37531e-86
-1.97574e-85
4.84458e-86
-1.81449e-85
8.55049e-86
-1.76196e-85
8.31436e-86
-2.29824e-85
1.1204e-85
-2.12976e-85
9.10952e-86
-3.13249e-85
3.58088e-85
-4.70477e-85
3.32629e-85
-6.31562e-85
1.89675e-85
-5.92833e-85
2.06153e-85
-6.90402e-85
2.48601e-85
-7.0105e-85
3.59106e-85
-8.08356e-85
2.11979e-85
-6.95713e-85
3.28526e-85
-1.01687e-84
2.87088e-85
-9.96942e-85
5.68476e-85
-9.5285e-85
4.22487e-85
-1.17654e-84
5.06309e-85
-1.28614e-84
4.36695e-85
-1.1439e-84
3.90216e-85
-1.13083e-84
6.42263e-85
-1.0541e-84
2.81593e-85
-9.75672e-85
4.75237e-85
-8.29482e-85
3.93847e-85
-7.76569e-85
3.28502e-85
-7.73428e-85
1.06276e-85
-6.26901e-85
1.44248e-85
-5.73096e-85
9.51153e-86
-5.59558e-85
1.58053e-86
-4.56684e-85
3.96427e-86
-4.64869e-85
5.8555e-86
-4.29446e-85
7.84223e-86
-3.5627e-85
4.24449e-86
-2.93429e-85
6.88841e-86
-2.427e-85
2.42934e-86
-1.92127e-85
4.08105e-86
-1.75519e-85
4.33545e-86
-1.50848e-85
3.27178e-86
-2.23991e-85
2.04649e-87
-1.23217e-84
7.11408e-85
-9.37411e-84
1.08102e-83
2.38452e-82
-3.91544e-82
9.47572e-81
1.30582e-80
1.95103e-80
-3.45402e-80
7.28813e-79
7.6559e-79
5.62498e-78
6.79415e-77
3.39512e-75
-5.17198e-75
-8.56662e-74
8.94192e-74
-1.13674e-73
1.05743e-72
-9.2404e-72
1.2416e-71
8.40298e-71
6.33232e-71
7.32981e-70
5.81794e-69
2.482e-68
-3.33543e-68
1.18551e-66
9.80947e-67
2.53453e-65
3.01626e-65
1.46422e-64
1.40187e-64
-9.92907e-68
-2.04741e-13
-1.0701e-08
-4.80361e-07
2.33693e-06
3.58526e-06
-7.94647e-07
-3.29076e-10
1.62987e-09
-6.49227e-10
2.20127e-15
3.37198e-12
9.01827e-18
5.9485e-20
-7.12122e-22
-1.97953e-23
5.95964e-25
-1.35605e-27
-5.08883e-29
5.49666e-32
9.80605e-34
-8.39229e-37
-4.29975e-38
3.16579e-40
-8.95403e-43
-1.74652e-45
3.80948e-47
-3.01154e-49
2.92987e-51
-3.01732e-53
2.86775e-55
-1.7658e-57
9.2334e-60
-2.98532e-62
3.37751e-64
-9.10992e-10
-4.57463e-12
-1.59687e-10
2.96012e-09
-4.33908e-10
-2.02085e-08
-3.29327e-08
4.52841e-08
1.97411e-07
-6.07019e-08
-2.07305e-06
-7.2468e-06
-1.47073e-05
-1.63142e-05
1.22557e-05
0.000119194
0.000371712
0.000880735
0.00175822
0.00307506
0.00508949
0.00758253
0.0103497
0.0139572
0.017035
0.0201546
0.0223011
0.0230038
0.0223997
0.0194228
0.0131189
0.00796937
-0.000194813
-0.0100311
-0.0202675
-0.0300519
-0.0382983
-0.0470301
-0.0540292
-0.0583775
-0.0596073
-0.0604047
-0.0582488
-0.0524955
-0.0483781
-0.042345
-0.0354327
-0.0303328
-0.0232217
-0.0179751
-0.0131155
-0.00882049
-0.00702681
-0.00424199
-0.00229719
-0.00111932
0.000144971
0.000760177
0.00090136
0.00163273
0.00129369
0.00130055
0.00118689
0.00101749
0.000850928
0.000604972
0.000461293
0.000410577
0.000296033
0.000215977
0.000159461
0.000124106
8.46347e-05
6.11333e-05
4.64681e-05
3.65061e-05
2.45124e-05
1.47588e-05
7.30009e-06
9.52974e-12
-3.55413e-05
8.43618e-13
-4.16538e-14
4.4624e-13
2.08519e-11
-2.86476e-12
3.31992e-11
5.31125e-11
-4.52177e-11
3.893e-11
5.01466e-12
-1.45844e-12
1.65028e-12
1.99745e-10
-2.46402e-12
-6.76303e-13
1.49663e-12
3.32771e-19
2.55757e-13
1.27499e-12
2.44071e-12
-3.73298e-12
3.8769e-12
-5.41724e-13
1.32062e-13
-1.32631e-12
-3.31264e-13
-1.36962e-12
-1.96075e-14
3.67485e-15
-3.58154e-10
-4.12366e-10
-4.02259e-12
-8.76872e-13
-4.30154e-11
7.06118e-12
-1.763e-11
8.70909e-12
1.67378e-11
-5.37779e-12
-2.73652e-12
9.38147e-12
7.70408e-13
2.12055e-11
1.23999e-11
3.97924e-11
3.1842e-11
-2.20092e-12
3.32653e-11
-3.08422e-11
-1.34181e-11
-3.6962e-11
-2.78381e-11
-2.0852e-11
-3.43825e-11
-2.93558e-11
1.09519e-11
1.63454e-11
6.5812e-11
-2.83527e-11
-7.34938e-12
-5.60029e-11
1.94903e-11
1.96256e-12
1.23043e-10
1.43797e-10
1.56609e-10
3.358e-10
4.63929e-10
7.23699e-11
4.02081e-10
-2.29878e-10
4.07521e-10
-9.35247e-10
1.69101e-10
-1.44493e-09
-1.63784e-10
-1.34316e-09
-1.51694e-10
-4.44708e-11
1.09699e-09
2.08101e-09
3.48176e-09
3.91509e-09
6.57898e-09
3.26786e-09
9.09724e-09
-2.349e-09
9.48449e-09
-1.35428e-08
5.38366e-09
-2.79835e-08
-1.85257e-09
-3.83002e-08
-1.04052e-08
-3.68498e-08
-1.14037e-08
-9.74329e-09
5.4717e-09
4.72272e-08
4.8357e-08
1.13506e-07
1.2527e-07
1.44427e-07
2.14322e-07
4.2309e-08
2.52359e-07
-3.24748e-07
1.42537e-07
-1.127e-06
-2.8543e-07
-2.52247e-06
-1.24006e-06
-4.58277e-06
-2.89969e-06
-7.22198e-06
-5.58835e-06
-9.79175e-06
-9.41992e-06
-1.15276e-05
-1.42126e-05
-1.0337e-05
-1.92586e-05
-2.96324e-06
-2.3857e-05
1.44297e-05
-2.78954e-05
4.74639e-05
-2.40381e-05
0.000102007
-1.4998e-05
0.000190491
5.91247e-06
0.000318682
4.27957e-05
0.000501693
0.000101853
0.000762679
0.000181943
0.00109401
0.000321234
0.00151415
0.000467936
0.0020365
0.000681412
0.00271562
0.000924788
0.0034508
0.00127068
0.00436975
0.00161057
0.00539587
0.00199567
0.0065686
0.00255079
0.00783209
0.00299006
0.00924157
0.00366597
0.0105884
0.00412077
0.0120901
0.00450323
0.0138175
0.00501001
0.0151804
0.00566746
0.0165583
0.00560448
0.0178119
0.00625915
0.0185705
0.00603563
0.0194038
0.00546472
0.0193545
0.00529362
0.0197824
0.00381692
0.02047
0.00305878
0.0201203
0.00267494
0.0194218
0.00117743
0.0176081
-0.000341458
0.0161764
-0.00277065
0.0143944
-0.00456027
0.0112144
-0.00643699
0.00858672
-0.010304
0.00453479
-0.0117355
-5.94913e-05
-0.0154775
-0.00405407
-0.0192701
-0.00903967
-0.0214825
-0.0131889
-0.0260257
-0.0162918
-0.0283549
-0.0205488
-0.0297735
-0.0253331
-0.0325208
-0.0297347
-0.0348055
-0.0335863
-0.0370094
-0.0370445
-0.038377
-0.0413167
-0.0398817
-0.0435013
-0.04133
-0.0470254
-0.041499
-0.0489394
-0.0417816
-0.0500028
-0.0413241
-0.0514601
-0.0404463
-0.0521013
-0.0394781
-0.0517469