/*--------------------------------*- C++ -*----------------------------------*\
  =========                 |
  \\      /  F ield         | OpenFOAM: The Open Source CFD Toolbox
   \\    /   O peration     | Website:  https://openfoam.org
    \\  /    A nd           | Version:  7
     \\/     M anipulation  |
\*---------------------------------------------------------------------------*/
FoamFile
{
    version     2.0;
    format      ascii;
    class       volScalarField;
    location    "0.3";
    object      T;
}
// * * * * * * * * * * * * * * * * * * * * * * * * * * * * * * * * * * * * * //

dimensions      [0 0 0 1 0 0 0];

internalField   nonuniform List<scalar> 
2500
(
0.5
0.0669146
-0.035317
-0.0277116
-0.00789957
0.00112999
0.00220778
0.000963444
3.68656e-05
-0.000209244
-0.000132838
-2.61451e-05
2.00998e-05
2.13462e-05
9.58647e-06
1.10113e-06
-1.76425e-06
-1.61273e-06
-7.79556e-07
-2.07738e-07
1.71578e-08
5.51372e-08
3.5953e-08
1.50387e-08
4.06472e-09
2.35185e-10
-5.0294e-10
-3.7458e-10
-1.72931e-10
-5.9081e-11
-1.40255e-11
-9.19989e-13
1.30559e-12
9.6179e-13
4.46328e-13
1.62046e-13
4.70461e-14
9.81518e-15
4.83771e-16
-8.69712e-16
-6.02316e-16
-2.75153e-16
-1.02154e-16
-3.21712e-17
-8.43484e-18
-1.62588e-18
-6.96836e-20
1.35935e-19
9.13392e-20
3.97401e-20
0.933085
0.5
0.14482
-0.0139068
-0.0411713
-0.0230299
-0.00507669
0.00215502
0.00250525
0.00100472
-1.41635e-05
-0.000276425
-0.000179662
-4.60851e-05
1.80876e-05
2.63727e-05
1.49525e-05
4.4732e-06
-3.01313e-07
-1.25896e-06
-8.57781e-07
-3.59785e-07
-8.79434e-08
5.49362e-09
1.95513e-08
1.24887e-08
5.26851e-09
1.56512e-09
2.37108e-10
-7.50945e-11
-8.33296e-11
-4.37702e-11
-1.69659e-11
-5.08622e-12
-1.04305e-12
-1.37482e-14
1.22555e-13
7.92946e-14
3.509e-14
1.25398e-14
3.70188e-15
8.46045e-16
9.9001e-17
-3.53589e-17
-3.3207e-17
-1.66152e-17
-6.58238e-18
-2.23024e-18
-6.55899e-19
-1.20978e-19
1.03532
0.85518
0.500001
0.182449
0.00830205
-0.0419339
-0.0324474
-0.0120064
6.06993e-05
0.00311884
0.00206358
0.000546944
-0.000198709
-0.000298194
-0.000162794
-3.87305e-05
1.46803e-05
2.11505e-05
1.23396e-05
4.28392e-06
4.3477e-07
-5.80402e-07
-5.02717e-07
-2.45796e-07
-8.07924e-08
-1.32062e-08
4.41382e-09
5.09237e-09
2.72401e-09
1.04482e-09
2.92122e-10
4.33234e-11
-1.21081e-11
-1.36568e-11
-7.18319e-12
-2.83134e-12
-8.92421e-13
-2.13071e-13
-2.50894e-14
1.00005e-14
9.28992e-15
4.64525e-15
1.82145e-15
6.00349e-16
1.65653e-16
3.49764e-17
3.10868e-18
-1.96615e-18
-1.55656e-18
-7.18219e-19
1.02771
1.01391
0.817552
0.499997
0.206385
0.0268081
-0.0388582
-0.038428
-0.0184011
-0.00297569
0.00294822
0.00297845
0.00134023
0.000140493
-0.000277318
-0.000251623
-0.000118252
-2.5401e-05
9.85716e-06
1.33592e-05
7.72431e-06
2.83589e-06
4.97819e-07
-1.87278e-07
-2.22282e-07
-1.21453e-07
-4.59933e-08
-1.15893e-08
-6.14369e-10
1.34131e-09
9.77061e-10
4.50213e-10
1.57833e-10
4.1199e-11
5.58877e-12
-1.78564e-12
-1.85874e-12
-9.59665e-13
-3.78873e-13
-1.22487e-13
-3.15965e-14
-5.29382e-15
3.96649e-16
8.64599e-16
4.94367e-16
2.09496e-16
7.44285e-17
2.27304e-17
5.83936e-18
6.83968e-19
1.0079
1.04117
0.991694
0.793604
0.499999
0.22339
0.0421984
-0.034292
-0.0421957
-0.0241329
-0.00663214
0.00195817
0.00349324
0.00215727
0.000681964
-7.22531e-05
-0.000241866
-0.000169251
-7.03024e-05
-1.35677e-05
5.54409e-06
6.96683e-06
3.94385e-06
1.48511e-06
3.24661e-07
-3.49751e-08
-7.90684e-08
-4.82743e-08
-2.01871e-08
-6.1675e-09
-1.112e-09
1.54529e-10
2.57653e-10
1.46838e-10
6.06404e-11
1.98056e-11
4.8861e-12
6.08901e-13
-2.23458e-13
-2.17207e-13
-1.10451e-13
-4.36859e-14
-1.44118e-14
-3.92824e-15
-7.88526e-16
-4.13997e-17
6.40109e-17
4.45497e-17
2.05507e-17
7.02276e-18
0.998871
1.02303
1.04192
0.973194
0.776646
0.500022
0.236333
0.0551551
-0.0292667
-0.0445786
-0.0293071
-0.0107853
7.70225e-05
0.0033317
0.00270118
0.00123882
0.00025381
-0.000122965
-0.000159183
-9.33081e-05
-3.48539e-05
-6.0402e-06
2.65142e-06
3.08536e-06
1.70675e-06
6.52442e-07
1.62159e-07
4.17763e-09
-2.29277e-08
-1.6114e-08
-7.35781e-09
-2.54425e-09
-6.35196e-10
-6.39262e-11
4.45228e-11
3.74235e-11
1.83737e-11
7.01952e-12
2.17768e-12
5.16761e-13
6.14594e-14
-2.36744e-14
-2.23529e-14
-1.13064e-14
-4.49929e-15
-1.51433e-15
-4.31973e-16
-9.76643e-17
-1.23215e-17
5.13605e-18
0.997794
1.00507
1.03244
1.03889
0.957879
0.763655
0.499872
0.246588
0.0664863
-0.0236636
-0.04543
-0.0335072
-0.015009
-0.00252408
0.00238961
0.00273728
0.00159312
0.000566911
5.10414e-05
-9.51182e-05
-8.44398e-05
-4.31726e-05
-1.47179e-05
-2.31259e-06
1.08373e-06
1.18265e-06
6.42361e-07
2.49013e-07
6.78383e-08
7.41966e-09
-5.2405e-09
-4.59883e-09
-2.30608e-09
-8.79238e-10
-2.61301e-10
-5.25264e-11
3.38933e-13
7.03906e-12
4.49741e-12
2.00412e-12
7.25117e-13
2.17282e-13
5.0505e-14
6.0509e-15
-2.14782e-15
-2.06441e-15
-1.05076e-15
-4.22841e-16
-1.4574e-16
-3.55411e-17
0.999037
0.997836
1.01201
1.03848
1.03435
0.944748
0.753004
0.499722
0.255643
0.0776802
-0.0164309
-0.0438722
-0.0358303
-0.0184797
-0.00529212
0.00088898
0.00224668
0.00162497
0.000748506
0.000204111
-1.16353e-05
-5.303e-05
-3.73673e-05
-1.71409e-05
-5.42721e-06
-7.96494e-07
3.78491e-07
3.98224e-07
2.1447e-07
8.4603e-08
2.48241e-08
4.18527e-09
-7.93519e-10
-1.12145e-09
-6.32351e-10
-2.63851e-10
-8.84327e-11
-2.30406e-11
-3.53947e-12
6.42354e-13
8.57973e-13
4.71414e-13
1.96821e-13
6.86203e-14
2.01363e-14
4.66102e-15
5.91788e-16
-1.67151e-16
-1.73199e-16
-8.67099e-17
0.99996
0.997491
0.999972
1.01844
1.04212
1.02907
0.933361
0.744378
0.500186
0.264496
0.0894626
-0.00709671
-0.0393404
-0.035473
-0.0203084
-0.00748873
-0.000709696
0.00142792
0.00136458
0.000757382
0.000285579
5.60738e-05
-1.66626e-05
-2.3563e-05
-1.41695e-05
-5.98223e-06
-1.79743e-06
-2.59202e-07
1.12838e-07
1.19334e-07
6.45503e-08
2.60452e-08
8.14887e-09
1.74086e-09
1.87062e-11
-2.27086e-10
-1.5247e-10
-7.00382e-11
-2.58952e-11
-7.85511e-12
-1.8114e-12
-1.87673e-13
1.03e-13
8.90556e-14
4.45643e-14
1.78009e-14
6.05823e-15
1.7601e-15
4.13352e-16
2.53956e-17
1.0002
0.998999
0.996962
1.00298
1.0238
1.0442
1.02419
0.924042
0.736977
0.499591
0.271147
0.100098
0.00323962
-0.0322281
-0.0322742
-0.0200227
-0.00856907
-0.0019573
0.000565595
0.000946107
0.000630585
0.000288352
9.04331e-05
1.08487e-05
-9.23989e-06
-8.7834e-06
-4.72753e-06
-1.88119e-06
-5.48768e-07
-8.2334e-08
2.85339e-08
3.21631e-08
1.7732e-08
7.35846e-09
2.43885e-09
6.0849e-10
7.18124e-11
-3.41793e-11
-3.20279e-11
-1.65722e-11
-6.72155e-12
-2.27787e-12
-6.37323e-13
-1.30638e-13
-6.34915e-15
1.17013e-14
8.25252e-15
3.88472e-15
1.50973e-15
4.32751e-16
1.00012
1.00002
0.998079
0.997063
1.00597
1.02853
1.04666
1.02078
0.91468
0.725593
0.491746
0.27046
0.106175
0.0125323
-0.0237392
-0.0268695
-0.0178142
-0.00842223
-0.00261562
-0.000114545
0.000519638
0.0004422
0.000237038
9.30729e-05
2.45051e-05
9.30686e-07
-3.71115e-06
-2.85258e-06
-1.42237e-06
-5.44602e-07
-1.57474e-07
-2.56907e-08
5.94383e-09
7.8487e-09
4.48528e-09
1.92532e-09
6.72973e-10
1.87853e-10
3.48422e-11
-1.69996e-12
-5.64582e-12
-3.48625e-12
-1.56415e-12
-5.82792e-13
-1.84939e-13
-4.84037e-14
-8.84724e-15
1.07027e-16
1.11525e-15
6.93878e-16
1.00001
1.00028
0.999654
0.997097
0.997116
1.00939
1.03498
1.05096
1.01561
0.896915
0.700143
0.468573
0.257588
0.105089
0.0190525
-0.0153357
-0.0204204
-0.0143958
-0.00733218
-0.0026956
-0.000516033
0.000185976
0.000259438
0.000165147
7.6114e-05
2.64459e-05
5.88318e-06
-3.15492e-07
-1.22921e-06
-8.31017e-07
-3.93759e-07
-1.47525e-07
-4.29855e-08
-7.795e-09
9.0965e-10
1.73579e-09
1.05046e-09
4.6948e-10
1.72606e-10
5.2563e-11
1.22198e-11
1.26416e-12
-7.31846e-13
-6.39986e-13
-3.26847e-13
-1.33791e-13
-4.68858e-14
-1.41442e-14
-3.52191e-15
-3.17686e-16
0.99996
1.00017
1.00044
0.998843
0.995455
0.997864
1.01607
1.04482
1.0529
0.997924
0.857978
0.651144
0.425678
0.23151
0.0966542
0.0221153
-0.00821021
-0.0141318
-0.0106322
-0.00576273
-0.00236985
-0.000658853
-2.09525e-05
0.000120275
9.83205e-05
5.26209e-05
2.17209e-05
6.84368e-06
1.29724e-06
-2.00658e-07
-3.55683e-07
-2.21905e-07
-1.01825e-07
-3.78185e-08
-1.12331e-08
-2.2714e-09
4.06302e-11
3.45163e-10
2.28274e-10
1.07126e-10
4.13947e-11
1.35415e-11
3.62694e-12
6.65116e-13
-2.06602e-14
-9.67369e-14
-6.06996e-14
-2.77112e-14
-1.06689e-14
-3.03033e-15
0.999959
1.00002
1.00055
1.00015
0.996817
0.994095
1.00273
1.02808
1.05322
1.03996
0.953228
0.788265
0.576264
0.365527
0.195618
0.0828737
0.0220479
-0.00299501
-0.00885871
-0.00721178
-0.00414196
-0.00185301
-0.000624535
-0.000116507
3.35009e-05
4.8872e-05
3.13518e-05
1.49358e-05
5.68166e-06
1.65898e-06
2.72772e-07
-6.98978e-08
-9.28755e-08
-5.51635e-08
-2.48652e-08
-9.24404e-09
-2.81896e-09
-6.30705e-10
-3.87322e-11
6.01539e-11
4.59399e-11
2.29193e-11
9.32176e-12
3.24545e-12
9.61357e-13
2.24987e-13
2.78743e-14
-9.57583e-15
-9.68379e-15
-4.91286e-15
0.999973
0.999943
1.0004
1.00065
0.998411
0.994475
0.996936
1.01442
1.04037
1.04632
0.99627
0.872131
0.687982
0.48218
0.296034
0.155668
0.0666649
0.019764
0.000252478
-0.00496493
-0.00450399
-0.00274651
-0.00131762
-0.000502788
-0.000137226
-9.95588e-06
1.83361e-05
1.59663e-05
8.86727e-06
3.89148e-06
1.39412e-06
3.85066e-07
5.68577e-08
-1.91716e-08
-2.23246e-08
-1.29064e-08
-5.77747e-09
-2.16517e-09
-6.80405e-10
-1.66435e-10
-2.05242e-11
8.51987e-12
8.49342e-12
4.5957e-12
1.97619e-12
7.28711e-13
2.33478e-13
6.30808e-14
1.26853e-14
-5.93341e-16
0.999983
0.99993
1.00026
1.00066
0.999296
0.995918
0.995977
1.0073
1.02805
1.03825
1.007
0.912287
0.756817
0.567551
0.381057
0.226597
0.117191
0.0506592
0.0163137
0.00187302
-0.00240661
-0.0025869
-0.00168946
-0.000863558
-0.000361036
-0.000119273
-2.50994e-05
2.64233e-06
6.58599e-06
4.55102e-06
2.29727e-06
9.50543e-07
3.26301e-07
8.69511e-08
1.21544e-08
-4.5028e-09
-5.00195e-09
-2.86365e-09
-1.28407e-09
-4.87582e-10
-1.58126e-10
-4.17659e-11
-7.16274e-12
6.98737e-13
1.41406e-12
8.60434e-13
3.94699e-13
1.5398e-13
5.28749e-14
1.27631e-14
0.999987
0.99994
1.0002
1.00053
0.999557
0.997003
0.99685
1.00509
1.0207
1.02852
1.00345
0.925061
0.791187
0.620358
0.442441
0.28513
0.164634
0.0839163
0.0365981
0.0125814
0.00237086
-0.000912812
-0.00135619
-0.000966286
-0.000526015
-0.000236886
-8.84018e-05
-2.53707e-05
-3.61881e-06
1.73542e-06
1.95301e-06
1.17897e-06
5.56831e-07
2.20919e-07
7.37063e-08
1.92978e-08
2.71301e-09
-9.29884e-10
-1.05253e-09
-6.05634e-10
-2.73986e-10
-1.05813e-10
-3.54192e-11
-9.99002e-12
-2.09173e-12
-1.04402e-13
2.01594e-13
1.49007e-13
7.42868e-14
2.75339e-14
0.999987
0.999952
1.00018
1.00042
0.999527
0.997495
0.997848
1.00519
1.01772
1.02197
0.996791
0.924966
0.80384
0.647566
0.480486
0.32685
0.202874
0.11411
0.0574591
0.0252742
0.00915694
0.00222759
-0.000152103
-0.000635787
-0.00051301
-0.000299177
-0.000143971
-5.87583e-05
-1.98696e-05
-4.92634e-06
-3.0656e-07
6.12635e-07
5.14488e-07
2.84375e-07
1.28114e-07
4.93614e-08
1.61931e-08
4.23196e-09
6.29981e-10
-1.68317e-10
-2.08769e-10
-1.22482e-10
-5.62648e-11
-2.21669e-11
-7.65492e-12
-2.28429e-12
-5.47527e-13
-7.37076e-14
2.065e-14
2.42177e-14
0.999986
0.999958
1.00019
1.00037
0.999436
0.997609
0.99844
1.00587
1.01715
1.01885
0.991695
0.921122
0.805811
0.658604
0.50057
0.352731
0.229809
0.137932
0.0758297
0.0378022
0.0167622
0.00633676
0.00180585
0.000165196
-0.000252312
-0.000250843
-0.000159072
-8.16886e-05
-3.58706e-05
-1.35151e-05
-4.18468e-06
-8.84355e-07
3.53992e-08
1.73989e-07
1.24699e-07
6.48728e-08
2.82613e-08
1.06792e-08
3.47703e-09
9.18466e-10
1.49405e-10
-2.55886e-11
-3.90343e-11
-2.3725e-11
-1.11375e-11
-4.48828e-12
-1.59805e-12
-5.00772e-13
-1.33052e-13
-1.58567e-14
0.999986
0.99996
1.00019
1.00036
0.999373
0.997579
0.998668
1.00641
1.01743
1.01787
0.988953
0.917635
0.804091
0.661404
0.509296
0.366657
0.246522
0.15453
0.0900439
0.0485333
0.0239954
0.0107184
0.00419429
0.00133051
0.000248217
-6.95303e-05
-0.000110723
-7.88209e-05
-4.34329e-05
-2.03727e-05
-8.32974e-06
-2.93683e-06
-8.39579e-07
-1.48193e-07
2.62159e-08
4.36845e-08
2.83727e-08
1.41454e-08
6.01962e-09
2.24805e-09
7.31743e-10
1.97121e-10
3.54506e-11
-2.74341e-12
-6.84955e-12
-4.40193e-12
-2.12671e-12
-8.79034e-13
-3.2358e-13
-8.79525e-14
0.999985
0.99996
1.0002
1.00036
0.999345
0.997528
0.99871
1.00667
1.0178
1.01782
0.987874
0.91554
0.802002
0.661018
0.512078
0.373024
0.255655
0.164828
0.0998505
0.0566909
0.0300373
0.0147484
0.00663064
0.00266842
0.000913783
0.000227362
5.05906e-06
-4.1908e-05
-3.6035e-05
-2.1635e-05
-1.08376e-05
-4.74733e-06
-1.83349e-06
-6.11558e-07
-1.62728e-07
-2.33978e-08
8.55955e-09
1.00851e-08
6.13796e-09
2.97001e-09
1.24421e-09
4.61966e-10
1.51153e-10
4.17581e-11
8.28815e-12
3.19278e-14
-1.1151e-12
-7.80922e-13
-3.92543e-13
-1.49266e-13
0.999985
0.99996
1.0002
1.00037
0.999338
0.997496
0.998691
1.00676
1.01803
1.018
0.987621
0.914587
0.800587
0.659949
0.512367
0.375346
0.259996
0.170526
0.105932
0.0622681
0.0345567
0.0180383
0.00880435
0.00398004
0.00163854
0.000593755
0.000173483
2.7417e-05
-1.14024e-05
-1.48358e-05
-1.0043e-05
-5.4123e-06
-2.52842e-06
-1.05004e-06
-3.87346e-07
-1.23406e-07
-3.08449e-08
-3.52822e-09
2.21002e-09
2.18549e-09
1.27331e-09
6.03632e-10
2.50439e-10
9.2877e-11
3.06668e-11
8.71355e-12
1.89236e-12
1.32779e-13
-1.63771e-13
-1.31141e-13
0.999985
0.999959
1.0002
1.00037
0.999338
0.997483
0.998667
1.00678
1.01814
1.01816
0.987657
0.914272
0.799866
0.659101
0.511935
0.375869
0.261728
0.173318
0.109331
0.0657242
0.0376208
0.0204633
0.0105422
0.00511842
0.00232416
0.00097458
0.000368608
0.000119321
2.80163e-05
2.37842e-07
-5.16227e-06
-4.28334e-06
-2.53144e-06
-1.26441e-06
-5.60047e-07
-2.22981e-07
-7.92823e-08
-2.43426e-08
-5.7795e-09
-5.21536e-10
5.02491e-10
4.50059e-10
2.54795e-10
1.19206e-10
4.92147e-11
1.82951e-11
6.11239e-12
1.78774e-12
4.22459e-13
1.93595e-14
0.999985
0.999959
1.0002
1.00037
0.99934
0.997479
0.998653
1.00677
1.01817
1.01825
0.987741
0.914222
0.79958
0.658619
0.511487
0.375777
0.262244
0.174505
0.111038
0.0676723
0.0395178
0.0220946
0.0118059
0.00601127
0.00290444
0.00132343
0.000563217
0.000220166
7.6473e-05
2.17058e-05
3.49622e-06
-1.19197e-06
-1.62203e-06
-1.09893e-06
-5.93657e-07
-2.8022e-07
-1.19063e-07
-4.58456e-08
-1.58342e-08
-4.72561e-09
-1.08013e-09
-7.93847e-11
1.04682e-10
8.87559e-11
4.93847e-11
2.29362e-11
9.45923e-12
3.53418e-12
1.2012e-12
2.89764e-13
0.999985
0.999959
1.0002
1.00037
0.999341
0.997479
0.998648
1.00676
1.01817
1.01828
0.9878
0.914249
0.799499
0.658402
0.5112
0.375575
0.262298
0.174917
0.111799
0.0686701
0.0405945
0.0231034
0.0126499
0.00665244
0.00335164
0.00161198
0.000736368
0.000317108
0.000127189
4.64838e-05
1.47638e-05
3.5403e-06
1.84138e-07
-4.94577e-07
-4.33123e-07
-2.60165e-07
-1.31777e-07
-5.95549e-08
-2.4488e-08
-9.18391e-09
-3.1022e-09
-9.0734e-10
-2.0268e-10
-1.33415e-11
2.03455e-11
1.68455e-11
9.29825e-12
4.3079e-12
1.78571e-12
5.77933e-13
0.999985
0.999959
1.0002
1.00037
0.999342
0.99748
0.998646
1.00675
1.01817
1.01829
0.987829
0.91428
0.799493
0.658325
0.511056
0.375422
0.262228
0.175012
0.11209
0.0691312
0.0411549
0.0236792
0.0131711
0.00707779
0.00366909
0.00183079
0.000876614
0.00040111
0.000174359
7.13612e-05
2.70888e-05
9.26618e-06
2.6668e-06
5.00363e-07
-7.18217e-08
-1.46528e-07
-1.04769e-07
-5.80331e-08
-2.80058e-08
-1.22331e-08
-4.90131e-09
-1.80096e-09
-5.98533e-10
-1.72893e-10
-3.83285e-11
-2.59651e-12
3.71853e-12
3.08621e-12
1.7077e-12
7.16503e-13
0.999985
0.999959
1.0002
1.00037
0.999342
0.99748
0.998646
1.00675
1.01816
1.01829
0.987839
0.914298
0.799504
0.658306
0.510997
0.375337
0.262157
0.175002
0.112177
0.06932
0.0414215
0.023983
0.0134699
0.00734007
0.00387835
0.00198445
0.000981385
0.000467849
0.000214259
9.38209e-05
3.90156e-05
1.52454e-05
5.49445e-06
1.75832e-06
4.51515e-07
5.47238e-08
-3.48993e-08
-3.73192e-08
-2.36535e-08
-1.23574e-08
-5.74459e-09
-2.44261e-09
-9.58908e-10
-3.4693e-10
-1.14037e-10
-3.27605e-11
-7.31065e-12
-5.72595e-13
6.39109e-13
5.41888e-13
0.999985
0.999959
1.0002
1.00037
0.999342
0.99748
0.998646
1.00675
1.01816
1.01829
0.987842
0.914307
0.799514
0.658307
0.510978
0.375298
0.262111
0.174974
0.11219
0.0693852
0.0415361
0.0241309
0.0136294
0.00749102
0.00400717
0.00208513
0.00105423
0.000517022
0.000245402
0.000112405
4.94968e-05
2.08439e-05
8.32957e-06
3.11935e-06
1.06995e-06
3.19748e-07
7.14631e-08
2.12588e-09
-1.05014e-08
-8.67085e-09
-5.06928e-09
-2.53424e-09
-1.14399e-09
-4.76161e-10
-1.8399e-10
-6.58196e-11
-2.1495e-11
-6.17779e-12
-1.41193e-12
-2.3056e-14
0.999985
0.999959
1.0002
1.00037
0.999342
0.99748
0.998646
1.00675
1.01816
1.01829
0.987843
0.91431
0.79952
0.658311
0.510974
0.375283
0.262088
0.174953
0.112182
0.0694016
0.0415795
0.0241969
0.0137085
0.0075723
0.00408153
0.00214701
0.00110169
0.000550894
0.000268055
0.000126674
5.79959e-05
2.56447e-05
1.09068e-05
4.43578e-06
1.71004e-06
6.15788e-07
2.01423e-07
5.60447e-08
1.04726e-08
-1.13535e-09
-2.64538e-09
-1.88935e-09
-1.04245e-09
-5.03707e-10
-2.22151e-10
-9.09206e-11
-3.47097e-11
-1.232e-11
-4.02856e-12
-9.12856e-13
0.999985
0.999959
1.0002
1.00037
0.999342
0.99748
0.998646
1.00675
1.01816
1.01829
0.987842
0.914311
0.799522
0.658313
0.510974
0.375278
0.262078
0.174941
0.112173
0.0694021
0.0415931
0.0242235
0.0137448
0.00761326
0.00412188
0.00218281
0.0011308
0.00057284
0.000283523
0.00013693
6.44235e-05
2.9466e-05
1.30678e-05
5.60084e-06
2.3096e-06
9.1052e-07
3.39796e-07
1.18017e-07
3.68795e-08
9.51812e-09
1.38834e-09
-4.79372e-10
-6.02889e-10
-3.92127e-10
-2.07206e-10
-9.74852e-11
-4.22072e-11
-1.70466e-11
-6.47208e-12
-1.91709e-12
0.999985
0.999959
1.0002
1.00037
0.999342
0.99748
0.998647
1.00675
1.01816
1.01829
0.987842
0.914311
0.799523
0.658315
0.510975
0.375277
0.262075
0.174935
0.112168
0.0693993
0.0415958
0.0242329
0.0137602
0.00763256
0.00414249
0.00220236
0.00114767
0.000586274
0.000293493
0.000143877
6.89925e-05
3.23155e-05
1.47587e-05
6.55795e-06
2.82747e-06
1.17875e-06
4.72905e-07
1.81317e-07
6.57112e-08
2.20762e-08
6.60336e-09
1.57437e-09
1.56902e-10
-1.32688e-10
-1.28442e-10
-7.82789e-11
-4.00194e-11
-1.84341e-11
-7.89014e-12
-2.73334e-12
0.999985
0.999959
1.0002
1.00037
0.999342
0.99748
0.998647
1.00675
1.01816
1.01829
0.987842
0.914311
0.799523
0.658316
0.510976
0.375278
0.262074
0.174932
0.112164
0.0693968
0.0415954
0.0242355
0.0137661
0.00764101
0.00415238
0.00221246
0.00115694
0.000594072
0.000299584
0.000148331
7.20629e-05
3.43201e-05
1.60032e-05
7.29503e-06
3.24496e-06
1.40535e-06
5.90928e-07
2.40369e-07
9.41066e-08
3.51971e-08
1.24245e-08
4.04942e-09
1.1621e-09
2.55053e-10
1.22088e-11
-3.11804e-11
-2.6025e-11
-1.51286e-11
-7.55988e-12
-3.05275e-12
0.999985
0.999959
1.0002
1.00037
0.999342
0.99748
0.998647
1.00675
1.01816
1.01829
0.987842
0.914311
0.799523
0.658316
0.510976
0.375278
0.262074
0.174932
0.112163
0.0693953
0.0415945
0.0242359
0.013768
0.00764441
0.00415684
0.00221739
0.00116177
0.000598375
0.000303123
0.000151047
7.40226e-05
3.56575e-05
1.68702e-05
7.83098e-06
3.56177e-06
1.58487e-06
6.88621e-07
2.91502e-07
1.19875e-07
4.7708e-08
1.82777e-08
6.68722e-09
2.30592e-09
7.31324e-10
2.01965e-10
4.07336e-11
-3.64599e-13
-6.67137e-12
-5.07699e-12
-2.6448e-12
0.999985
0.999959
1.0002
1.00037
0.999342
0.99748
0.998647
1.00675
1.01816
1.01829
0.987842
0.914311
0.799523
0.658316
0.510977
0.375278
0.262074
0.174931
0.112163
0.0693946
0.0415939
0.0242357
0.0137685
0.00764565
0.00415872
0.00221966
0.00116416
0.000600636
0.000305083
0.000152626
7.52149e-05
3.65071e-05
1.74447e-05
8.20095e-06
3.78953e-06
1.71925e-06
7.64783e-07
3.33041e-07
1.41709e-07
5.87809e-08
2.36995e-08
9.25134e-09
3.47715e-09
1.24774e-09
4.21487e-10
1.30499e-10
3.48164e-11
6.46305e-12
-4.35645e-13
-1.41267e-12
0.999985
0.999959
1.0002
1.00037
0.999342
0.99748
0.998647
1.00675
1.01816
1.01829
0.987842
0.914311
0.799523
0.658316
0.510977
0.375278
0.262074
0.174931
0.112162
0.0693943
0.0415936
0.0242355
0.0137685
0.00764603
0.00415944
0.00222065
0.00116528
0.000601769
0.00030612
0.000153503
7.59083e-05
3.70229e-05
1.7808e-05
8.44448e-06
3.94541e-06
1.81483e-06
8.21073e-07
3.64946e-07
1.59143e-07
6.79789e-08
2.83899e-08
1.15651e-08
4.58185e-09
1.7583e-09
6.49852e-10
2.29286e-10
7.60878e-11
2.30761e-11
6.00759e-12
5.93883e-13
0.999985
0.999959
1.0002
1.00037
0.999342
0.99748
0.998647
1.00675
1.01816
1.01829
0.987842
0.914311
0.799523
0.658316
0.510977
0.375278
0.262074
0.174931
0.112162
0.0693942
0.0415934
0.0242353
0.0137685
0.00764612
0.00415969
0.00222105
0.00116578
0.000602309
0.000306645
0.00015397
7.62947e-05
3.73229e-05
1.80281e-05
8.59787e-06
4.04739e-06
1.87972e-06
8.60713e-07
3.88246e-07
1.72349e-07
7.52064e-08
3.22155e-08
1.35255e-08
5.5553e-09
2.22697e-09
8.68698e-10
3.28401e-10
1.19611e-10
4.15897e-11
1.36529e-11
3.20472e-12
0.999985
0.999959
1.0002
1.00037
0.999342
0.99748
0.998647
1.00675
1.01816
1.01829
0.987842
0.914311
0.799523
0.658316
0.510977
0.375278
0.262074
0.174931
0.112162
0.0693941
0.0415933
0.0242353
0.0137684
0.00764612
0.00415977
0.00222119
0.00116599
0.000602555
0.000306899
0.000154209
7.65014e-05
3.74905e-05
1.81561e-05
8.69058e-06
4.11135e-06
1.92192e-06
8.8742e-07
4.04502e-07
1.81886e-07
8.06103e-08
3.51771e-08
1.50976e-08
6.36442e-09
2.6311e-09
1.06471e-09
4.20768e-10
1.61905e-10
6.04036e-11
2.1809e-11
6.1792e-12
0.999985
0.999959
1.0002
1.00037
0.999342
0.99748
0.998647
1.00675
1.01816
1.01829
0.987842
0.914311
0.799523
0.658316
0.510977
0.375278
0.262074
0.174931
0.112162
0.0693941
0.0415933
0.0242352
0.0137684
0.0076461
0.00415978
0.00222124
0.00116608
0.000602662
0.000307017
0.000154325
7.66076e-05
3.75805e-05
1.82278e-05
8.74448e-06
4.14993e-06
1.94829e-06
9.0469e-07
4.15375e-07
1.88481e-07
8.44727e-08
3.73648e-08
1.62979e-08
7.00314e-09
2.9611e-09
1.23041e-09
5.01668e-10
2.00336e-10
7.81703e-11
2.98306e-11
9.26153e-12
0.999985
0.999959
1.0002
1.00037
0.999342
0.99748
0.998647
1.00675
1.01816
1.01829
0.987842
0.914311
0.799523
0.658316
0.510977
0.375278
0.262074
0.174931
0.112162
0.0693941
0.0415933
0.0242352
0.0137684
0.00764609
0.00415978
0.00222126
0.00116611
0.000602705
0.000307069
0.00015438
7.66602e-05
3.76271e-05
1.82664e-05
8.77469e-06
4.17235e-06
1.96415e-06
9.15439e-07
4.22368e-07
1.92862e-07
8.71213e-08
3.89132e-08
1.71746e-08
7.48456e-09
3.21784e-09
1.36351e-09
5.6881e-10
2.33314e-10
9.39484e-11
3.72127e-11
1.22264e-11
0.999985
0.999959
1.0002
1.00037
0.999342
0.99748
0.998647
1.00675
1.01816
1.01829
0.987842
0.914311
0.799523
0.658316
0.510977
0.375278
0.262074
0.174931
0.112162
0.0693941
0.0415933
0.0242352
0.0137684
0.00764608
0.00415978
0.00222126
0.00116612
0.000602722
0.00030709
0.000154405
7.66852e-05
3.76503e-05
1.82865e-05
8.79104e-06
4.18493e-06
1.97337e-06
9.21894e-07
4.26705e-07
1.95666e-07
8.88694e-08
3.99666e-08
1.77893e-08
7.83242e-09
3.40901e-09
1.46566e-09
6.21929e-10
2.60221e-10
1.07234e-10
4.36321e-11
1.49072e-11
0.999985
0.999959
1.0002
1.00037
0.999342
0.99748
0.998647
1.00675
1.01816
1.01829
0.987842
0.914311
0.799523
0.658316
0.510977
0.375278
0.262074
0.174931
0.112162
0.0693941
0.0415933
0.0242352
0.0137684
0.00764608
0.00415977
0.00222126
0.00116612
0.000602728
0.000307099
0.000154416
7.66967e-05
3.76615e-05
1.82966e-05
8.79959e-06
4.19175e-06
1.97855e-06
9.25641e-07
4.29304e-07
1.97398e-07
8.99827e-08
4.06577e-08
1.82044e-08
8.07424e-09
3.54578e-09
1.54086e-09
6.62178e-10
2.81209e-10
1.17904e-10
4.89436e-11
1.72051e-11
0.999985
0.999959
1.0002
1.00037
0.999342
0.99748
0.998647
1.00675
1.01816
1.01829
0.987842
0.914311
0.799523
0.658316
0.510977
0.375278
0.262074
0.174931
0.112162
0.0693941
0.0415933
0.0242352
0.0137684
0.00764608
0.00415977
0.00222126
0.00116612
0.000602729
0.000307102
0.00015442
7.67018e-05
3.76667e-05
1.83015e-05
8.80392e-06
4.19534e-06
1.98136e-06
9.27748e-07
4.30812e-07
1.98434e-07
9.06683e-08
4.10957e-08
1.84751e-08
8.2364e-09
3.64007e-09
1.59415e-09
6.91496e-10
2.96923e-10
1.26117e-10
5.31475e-11
1.90841e-11
0.999985
0.999959
1.0002
1.00037
0.999342
0.99748
0.998647
1.00675
1.01816
1.01829
0.987842
0.914311
0.799523
0.658316
0.510977
0.375278
0.262074
0.174931
0.112162
0.0693941
0.0415933
0.0242352
0.0137684
0.00764608
0.00415977
0.00222126
0.00116612
0.00060273
0.000307104
0.000154422
7.67039e-05
3.76691e-05
1.83038e-05
8.80604e-06
4.19717e-06
1.98285e-06
9.28896e-07
4.31659e-07
1.99035e-07
9.10773e-08
4.13645e-08
1.8646e-08
8.34155e-09
3.70287e-09
1.63061e-09
7.12088e-10
3.08255e-10
1.32198e-10
5.63433e-11
2.05568e-11
0.999985
0.999959
1.0002
1.00037
0.999342
0.99748
0.998647
1.00675
1.01816
1.01829
0.987842
0.914311
0.799523
0.658316
0.510977
0.375278
0.262074
0.174931
0.112162
0.0693941
0.0415933
0.0242352
0.0137684
0.00764608
0.00415977
0.00222126
0.00116612
0.00060273
0.000307104
0.000154422
7.67048e-05
3.76701e-05
1.83049e-05
8.80705e-06
4.19807e-06
1.98361e-06
9.29503e-07
4.32122e-07
1.99373e-07
9.13142e-08
4.15246e-08
1.87505e-08
8.40762e-09
3.74338e-09
1.65474e-09
7.26071e-10
3.16147e-10
1.36542e-10
5.86844e-11
2.16673e-11
0.999985
0.999959
1.0002
1.00037
0.999342
0.99748
0.998647
1.00675
1.01816
1.01829
0.987842
0.914311
0.799523
0.658316
0.510977
0.375278
0.262074
0.174931
0.112162
0.0693941
0.0415933
0.0242352
0.0137684
0.00764608
0.00415977
0.00222126
0.00116612
0.00060273
0.000307104
0.000154423
7.67051e-05
3.76705e-05
1.83053e-05
8.80751e-06
4.1985e-06
1.98399e-06
9.29816e-07
4.32368e-07
1.99557e-07
9.14475e-08
4.16172e-08
1.88126e-08
8.44791e-09
3.76873e-09
1.67022e-09
7.35269e-10
3.21469e-10
1.39543e-10
6.03418e-11
2.24755e-11
0.999985
0.999959
1.0002
1.00037
0.999342
0.99748
0.998647
1.00675
1.01816
1.01829
0.987842
0.914311
0.799523
0.658316
0.510977
0.375278
0.262074
0.174931
0.112162
0.0693941
0.0415933
0.0242352
0.0137684
0.00764608
0.00415977
0.00222126
0.00116612
0.00060273
0.000307104
0.000154423
7.67052e-05
3.76707e-05
1.83055e-05
8.80772e-06
4.1987e-06
1.98417e-06
9.29972e-07
4.32495e-07
1.99656e-07
9.15205e-08
4.16693e-08
1.88485e-08
8.47181e-09
3.78415e-09
1.67988e-09
7.41143e-10
3.24949e-10
1.41553e-10
6.14782e-11
2.30446e-11
0.999985
0.999959
1.0002
1.00037
0.999342
0.99748
0.998647
1.00675
1.01816
1.01829
0.987842
0.914311
0.799523
0.658316
0.510977
0.375278
0.262074
0.174931
0.112162
0.0693941
0.0415933
0.0242352
0.0137684
0.00764608
0.00415977
0.00222126
0.00116612
0.00060273
0.000307104
0.000154423
7.67053e-05
3.76707e-05
1.83056e-05
8.80781e-06
4.19879e-06
1.98425e-06
9.30048e-07
4.32559e-07
1.99707e-07
9.15594e-08
4.16979e-08
1.88687e-08
8.48561e-09
3.79327e-09
1.68573e-09
7.44791e-10
3.27162e-10
1.4286e-10
6.22346e-11
2.34332e-11
0.999985
0.999959
1.0002
1.00037
0.999342
0.99748
0.998647
1.00675
1.01816
1.01829
0.987842
0.914311
0.799523
0.658316
0.510977
0.375278
0.262074
0.174931
0.112162
0.0693941
0.0415933
0.0242352
0.0137684
0.00764608
0.00415977
0.00222126
0.00116612
0.00060273
0.000307104
0.000154423
7.67053e-05
3.76708e-05
1.83057e-05
8.80785e-06
4.19883e-06
1.98429e-06
9.30084e-07
4.3259e-07
1.99732e-07
9.15797e-08
4.17131e-08
1.88798e-08
8.49337e-09
3.79853e-09
1.68918e-09
7.46996e-10
3.2853e-10
1.43688e-10
6.27241e-11
2.3691e-11
0.999985
0.999959
1.0002
1.00037
0.999342
0.99748
0.998647
1.00675
1.01816
1.01829
0.987842
0.914311
0.799523
0.658316
0.510977
0.375278
0.262074
0.174931
0.112162
0.0693941
0.0415933
0.0242352
0.0137684
0.00764608
0.00415977
0.00222126
0.00116612
0.00060273
0.000307104
0.000154423
7.67053e-05
3.76708e-05
1.83057e-05
8.80786e-06
4.19885e-06
1.98431e-06
9.30101e-07
4.32605e-07
1.99745e-07
9.15899e-08
4.17211e-08
1.88857e-08
8.49762e-09
3.80148e-09
1.69117e-09
7.48291e-10
3.29352e-10
1.44195e-10
6.30309e-11
2.38566e-11
0.999985
0.999959
1.0002
1.00037
0.999342
0.99748
0.998647
1.00675
1.01816
1.01829
0.987842
0.914311
0.799523
0.658316
0.510977
0.375278
0.262074
0.174931
0.112162
0.0693941
0.0415933
0.0242352
0.0137684
0.00764608
0.00415977
0.00222126
0.00116612
0.00060273
0.000307104
0.000154423
7.67053e-05
3.76708e-05
1.83057e-05
8.80787e-06
4.19886e-06
1.98432e-06
9.30109e-07
4.32613e-07
1.99752e-07
9.15955e-08
4.17256e-08
1.88891e-08
8.50015e-09
3.80328e-09
1.69241e-09
7.49123e-10
3.29893e-10
1.44538e-10
6.32428e-11
2.39739e-11
)
;

boundaryField
{
    upperWall
    {
        type            zeroGradient;
    }
    outlet
    {
        type            zeroGradient;
    }
    inlet
    {
        type            fixedValue;
        value           uniform 1;
    }
    lowerWall
    {
        type            fixedValue;
        value           uniform 0;
    }
    frontAndBack
    {
        type            empty;
    }
}


// ************************************************************************* //
