/*--------------------------------*- C++ -*----------------------------------*\
  =========                 |
  \\      /  F ield         | OpenFOAM: The Open Source CFD Toolbox
   \\    /   O peration     | Website:  https://openfoam.org
    \\  /    A nd           | Version:  7
     \\/     M anipulation  |
\*---------------------------------------------------------------------------*/
FoamFile
{
    version     2.0;
    format      ascii;
    class       volScalarField;
    location    "0.14";
    object      T;
}
// * * * * * * * * * * * * * * * * * * * * * * * * * * * * * * * * * * * * * //

dimensions      [0 0 0 1 0 0 0];

internalField   nonuniform List<scalar> 
46572
(
0
0
0
0
0
0
0
0
0
0
0
0
0
0
0
0
0
0
0
0
0
0
0
0
0
0
0
0
0
0
0
0
0
0
0
0
0
0
0
0
0
0
0
0
0
0
0
0
0
0
0
0
0
0
0
0
0
0
0
0
0
0
0
0
0
0
0
0
0
0
0
0
0
0
0
0
0
0
0
0
0
0
0
0
0
0
0
0
0
0
0
0
0
0
0
0
0
0
0
0
0
0
0
0
0
0
0
0
0
0
0
0
0
0
0
0
0
0
0
0
0
0
0
0
0
0
0
0
0
0
0
0
0
0
0
0
0
0
0
0
0
0
0
0
0
0
0
0
0
0
0
0
0
0
0
0
0
0
0
0
0
0
0
0
0
0
0
0
0
0
0
0
0
0
0
0
0
0
0
0
0
0
0
0
0
0
0
0
0
0
0
0
0
0
0
0
0
0
0
0
0
0
0
0
0
0
0
0
0
0
0
0
0
0
0
0
0
0
0
0
0
0
0
0
0
0
0
0
0
0
0
0
0
0
0
0
0
0
0
0
0
0
0
0
0
0
0
0
0
0
0
0
0
0
0
0
0
0
0
0
0
0
0
0
0
0
0
0
0
0
0
0
0
0
0
0
0
0
0
0
0
0
0
0
0
0
0
0
0
0
0
0
0
0
0
0
0
0
0
0
0
0
0
0
0
0
0
0
0
0
0
0
0
0
0
0
0
0
0
0
0
0
0
0
0
0
0
0
0
0
0
0
0
0
0
0
0
0
0
0
0
0
0
0
0
0
0
0
0
0
0
0
0
0
0
0
0
0
0
-2.92191e-142
-3.65239e-142
-1.86123e-142
-2.32654e-142
-1.08916e-141
3.36611e-141
-2.26612e-139
-2.75462e-139
-2.93811e-139
-3.6194e-139
-5.59201e-139
-6.16941e-139
-4.357e-139
-2.19782e-139
-1.17557e-137
-1.45092e-137
-1.06414e-137
2.45932e-138
-1.30368e-136
-1.52287e-136
-8.40585e-137
-9.81129e-137
-5.74e-137
-4.98362e-137
-3.24985e-136
1.09431e-135
-3.02529e-134
-3.42763e-134
-2.2514e-133
-2.69687e-133
-2.6938e-132
-3.19174e-132
-1.75009e-132
-2.07599e-132
-1.13467e-132
-1.34065e-132
-4.69329e-132
-5.36531e-132
-8.58665e-132
-1.04066e-131
-5.612e-132
-6.77965e-132
-3.85042e-132
-3.79355e-132
-8.04811e-132
-8.97463e-132
-6.47471e-132
-6.91715e-132
-4.25413e-132
-4.3557e-132
-5.23889e-132
5.76243e-132
-3.62124e-130
-3.7887e-130
-1.90412e-128
-2.08365e-128
-1.25836e-128
-1.37722e-128
-8.60036e-129
-9.48646e-129
-5.84387e-129
-6.20928e-129
-8.41942e-128
-9.07715e-128
-1.72089e-127
-2.04817e-127
-1.1033e-127
-1.31024e-127
-7.52427e-128
-6.90835e-128
-1.88913e-127
-2.03159e-127
-2.25062e-127
-2.59554e-127
-3.38662e-127
-3.35562e-127
-3.18657e-127
1.38334e-127
-1.09889e-126
-1.01185e-126
-4.14507e-126
-4.14801e-126
-2.77665e-126
-2.79785e-126
-4.20671e-126
-4.84958e-126
-2.73083e-126
-3.1476e-126
-1.84402e-126
-1.89001e-126
-1.21466e-125
-1.45112e-125
-7.7489e-126
-9.22212e-126
-6.38422e-126
-7.67171e-127
-2.82115e-125
-2.75812e-125
-3.45983e-125
-3.83423e-125
-3.03815e-125
-3.33934e-125
-2.10838e-125
-1.74226e-125
-2.6589e-125
-2.72128e-125
-2.07366e-125
-6.80968e-126
-3.62231e-125
-3.34588e-125
-4.02358e-125
-4.32567e-125
-2.64875e-125
-2.77247e-125
-2.41913e-125
-2.65843e-125
-2.6762e-125
-3.05986e-125
-1.04868e-124
-3.74386e-125
-5.25508e-124
-5.98186e-124
-3.52448e-124
-3.49264e-124
-2.42397e-124
-2.35111e-124
-2.51545e-123
-2.60688e-123
-4.9625e-123
-5.85009e-123
-3.2086e-123
-3.76447e-123
-2.16041e-123
-2.31939e-123
-2.74092e-123
-3.06619e-123
-2.96024e-123
-3.31756e-123
-1.19151e-122
-1.2146e-122
-8.37269e-123
-6.22761e-123
-5.73553e-123
-4.47069e-123
-4.06234e-123
-2.44676e-123
-2.88416e-123
-1.88061e-123
-7.45563e-123
-7.5022e-123
-4.99647e-123
-5.04564e-123
-2.35058e-122
-2.54673e-122
-4.23462e-122
-5.03244e-122
-2.69644e-122
-3.19652e-122
-1.76372e-122
-1.90736e-122
-2.14192e-122
-2.40127e-122
-2.03541e-122
-2.37065e-122
-1.5068e-122
-1.72449e-122
-1.00447e-122
-1.03178e-122
-2.71748e-122
-3.22361e-122
-1.68261e-122
-1.9985e-122
-1.2802e-122
-1.53019e-122
-2.31752e-122
-2.75556e-122
-1.45814e-122
-1.73489e-122
-9.19716e-123
-1.06619e-122
-2.08392e-122
-2.5298e-122
-1.24281e-122
-1.5027e-122
-7.61799e-123
-8.69239e-123
-7.10458e-123
-8.23663e-123
-5.98632e-123
-7.09996e-123
-4.0009e-123
-4.74793e-123
-2.52228e-123
-2.90319e-123
-4.27487e-123
-5.20284e-123
-2.65221e-123
-3.08112e-123
-2.47781e-123
-2.92227e-123
-1.62675e-123
-1.93134e-123
-9.6591e-124
-1.13874e-123
-5.73504e-124
-6.73836e-124
-7.95856e-124
-9.55692e-124
-3.15892e-123
-3.62053e-123
-1.98475e-123
-2.27132e-123
-1.24402e-123
-1.43027e-123
-7.72425e-124
-8.91395e-124
-1.85726e-123
-2.17406e-123
-3.26112e-123
-3.97623e-123
-2.02359e-123
-2.46411e-123
-1.23702e-123
-1.49622e-123
-7.18251e-124
-8.7213e-124
-4.16128e-124
-5.05344e-124
-1.37442e-120
-2.58424e-124
-9.81477e-117
-5.36759e-117
-9.16069e-114
-1.1391e-113
-5.82684e-114
-7.16795e-114
-1.34209e-112
-1.69028e-28
-1.10283e-28
-6.06801e-30
-1.15273e-31
1.01476e-33
2.60845e-35
-2.27671e-37
-9.12072e-39
-5.02715e-41
1.89498e-42
2.37175e-44
3.75091e-47
-2.03693e-48
-1.00007e-50
1.58698e-53
1.3473e-55
3.0855e-58
-1.92792e-60
-5.2144e-62
-3.32042e-64
-5.74799e-67
-7.85694e-70
-6.4989e-72
-5.80904e-74
-1.9432e-76
-1.34713e-79
-5.49883e-84
-5.90385e-91
-2.69017e-99
-1.23042e-106
-2.11285e-28
0.130244
0.129243
0.122651
0.0881932
0.0363705
-0.0113691
-0.037335
-0.0522154
-0.0514666
-0.0429645
-0.0327831
-0.024006
-0.0161509
-0.0104457
-0.00644335
-0.00401215
-0.00238194
-0.0013647
-0.000769041
-0.000432405
-0.000239713
-0.000128693
-6.65093e-05
-3.51372e-05
-1.78896e-05
-8.96404e-06
-4.44025e-06
-2.21631e-06
-1.07256e-06
-5.17577e-07
-2.44139e-07
-1.17365e-07
-5.5186e-08
-2.52845e-08
-1.15421e-08
-5.29511e-09
-2.42319e-09
-1.08097e-09
-4.72251e-10
-2.0899e-10
-9.01439e-11
-3.85886e-11
-1.65378e-11
-6.85566e-12
-2.92395e-12
-1.22229e-12
-5.04108e-13
-2.07955e-13
-8.46902e-14
-3.38077e-14
-1.34747e-14
-5.3984e-15
-2.15516e-15
-8.39314e-16
-3.2131e-16
-1.24205e-16
-4.68846e-17
-1.75476e-17
-6.58636e-18
-2.39531e-18
-8.8997e-19
-3.23529e-19
-1.15955e-19
-4.1253e-20
-1.4644e-20
-5.17839e-21
-1.78919e-21
-6.03846e-22
-2.06069e-22
-6.84758e-23
-2.24247e-23
-7.24583e-24
-2.34258e-24
-7.34209e-25
-2.28226e-25
-6.9005e-26
-2.08953e-26
-6.12899e-27
-1.79457e-27
-4.80142e-28
-2.60076e-28
0.00322155
-0.00564786
-0.00413083
0.0287895
0.082428
0.129586
0.160036
0.172195
0.167238
0.150895
0.135543
-0.0342148
-0.00190628
-0.00193204
-0.00165642
-0.00139948
-0.00150411
-0.00169006
-0.00176104
-0.0017731
-0.00164243
-0.00217386
0.00111685
0.00333243
0.00341625
-0.00498737
-0.00170241
-0.00881148
-0.00788951
-0.00624371
-0.0110696
0.00457279
-0.00970155
0.0229071
-0.00360977
0.0451091
0.00649134
0.0704904
0.0164851
0.0930459
0.0262398
0.115215
0.0328559
0.13303
0.0384976
0.144655
0.0388779
0.153245
0.0342952
0.156391
0.028228
0.157624
0.0189528
0.1538
0.010438
0.151358
-0.00203866
0.150383
-0.0135307
0.139213
-0.0187501
0.116336
-0.0255401
0.114591
-0.0459473
0.113831
-0.0484028
0.116591
-0.0518284
0.111097
-0.0529866
0.0989065
-0.0580548
0.0813371
-0.0669712
0.0592764
-0.0772434
0.0354968
-0.0892782
0.0110677
-0.0988795
-0.00801688
-0.106056
-0.023333
-0.109706
-0.0369813
-0.110946
-0.0449957
-0.109134
-0.05042
-0.104843
-0.0524558
-0.0977072
-0.0494536
-0.0883246
-0.0479921
-0.0791191
-0.0426154
-0.0687517
-0.037549
-0.0588308
-0.0330635
-0.0501779
-0.027652
-0.0414466
-0.0235237
-0.0345259
-0.019884
-0.028575
-0.0163576
-0.0232153
-0.0133148
-0.0186732
-0.0106511
-0.0148594
-0.00852055
-0.0117818
-0.00677121
-0.00925604
-0.00521844
-0.0071405
-0.00412203
-0.00556656
-0.00314334
-0.00424359
-0.0023974
-0.0032278
-0.00184808
-0.00246943
-0.00141351
-0.00187837
-0.00105318
-0.00140177
-0.000800163
-0.00105773
-0.000599198
-0.000789576
-0.000447063
-0.000586999
-0.00033064
-0.00043336
-0.000243771
-0.00031954
-0.000180429
-0.000235207
-0.00013095
-0.000170937
-9.68503e-05
-0.000125456
-6.94757e-05
-9.0247e-05
-4.99895e-05
-6.4861e-05
-3.6281e-05
-4.69403e-05
-2.62555e-05
-3.38636e-05
-1.85689e-05
-2.39951e-05
-1.34216e-05
-1.7236e-05
-9.44107e-06
-1.21379e-05
-6.62979e-06
-8.53625e-06
-4.71541e-06
-6.05117e-06
-3.26496e-06
-4.19491e-06
-2.30498e-06
-2.95819e-06
-1.63141e-06
-2.08923e-06
-1.14123e-06
-1.46076e-06
-7.96353e-07
-1.01795e-06
-5.50463e-07
-7.04392e-07
-3.83082e-07
-4.89507e-07
-2.66637e-07
-3.39953e-07
-1.81664e-07
-2.31996e-07
-1.26186e-07
-1.60661e-07
-8.56594e-08
-1.09191e-07
-5.81895e-08
-7.41683e-08
-3.99358e-08
-5.07776e-08
-2.67176e-08
-3.40306e-08
-1.82301e-08
-2.31986e-08
-1.2464e-08
-1.58428e-08
-8.44113e-09
-1.07227e-08
-5.70098e-09
-7.23671e-09
-3.83412e-09
-4.8656e-09
-2.57141e-09
-3.26527e-09
-1.73286e-09
-2.19725e-09
-1.15143e-09
-1.46082e-09
-7.7575e-10
-9.81682e-10
-5.11236e-10
-6.47855e-10
-3.37732e-10
-4.2785e-10
-2.24733e-10
-2.84481e-10
-1.49505e-10
-1.89068e-10
-9.75427e-11
-1.23483e-10
-6.4759e-11
-8.18377e-11
-4.25826e-11
-5.3793e-11
-2.79394e-11
-3.52857e-11
-1.82641e-11
-2.30714e-11
-1.19146e-11
-1.50502e-11
-7.81299e-12
-9.86033e-12
-5.05836e-12
-6.38465e-12
-3.30938e-12
-4.1709e-12
-2.12005e-12
-2.67444e-12
-1.36079e-12
-1.7166e-12
-8.80484e-13
-1.10999e-12
-5.69622e-13
-7.17693e-13
-3.61871e-13
-4.56185e-13
-2.33765e-13
-2.944e-13
-1.48169e-13
-1.86702e-13
-9.38665e-14
-1.18284e-13
-5.99986e-14
-7.5534e-14
-3.75619e-14
-4.73171e-14
-2.39013e-14
-3.00983e-14
-1.52405e-14
-1.91836e-14
-9.63704e-15
-1.21277e-14
-6.07381e-15
-7.64154e-15
-3.80896e-15
-4.79222e-15
-2.39447e-15
-3.01255e-15
-1.50806e-15
-1.89618e-15
-9.32527e-16
-1.17303e-15
-5.86555e-16
-7.37073e-16
-3.6206e-16
-4.55199e-16
-2.23603e-16
-2.81093e-16
-1.39151e-16
-1.74859e-16
-8.6126e-17
-1.08207e-16
-5.26411e-17
-6.6148e-17
-3.26439e-17
-4.09971e-17
-2.00672e-17
-2.51992e-17
-1.23036e-17
-1.54467e-17
-7.52347e-18
-9.44524e-18
-4.58382e-18
-5.75426e-18
-2.80561e-18
-3.52065e-18
-1.69551e-18
-2.12769e-18
-1.03526e-18
-1.29857e-18
-6.21229e-19
-7.79334e-19
-3.72644e-19
-4.67434e-19
-2.24725e-19
-2.81817e-19
-1.35518e-19
-1.6991e-19
-8.03854e-20
-1.00792e-19
-4.83291e-20
-6.05782e-20
-2.87867e-20
-3.6079e-20
-1.70922e-20
-2.14191e-20
-1.01243e-20
-1.26857e-20
-5.97282e-21
-7.48381e-21
-3.53477e-21
-4.42786e-21
-2.06096e-21
-2.58165e-21
-1.1934e-21
-1.49476e-21
-7.03086e-22
-8.80488e-22
-4.10399e-22
-5.13888e-22
-2.39076e-22
-2.99326e-22
-1.39192e-22
-1.74243e-22
-7.96553e-23
-9.97113e-23
-4.61661e-23
-5.77778e-23
-2.63037e-23
-3.29179e-23
-1.4938e-23
-1.86934e-23
-8.5335e-24
-1.06772e-23
-4.78611e-24
-5.98809e-24
-2.71459e-24
-3.39595e-24
-1.53998e-24
-1.92628e-24
-8.65419e-25
-1.08242e-24
-4.83646e-25
-6.04865e-25
-2.69545e-25
-3.37075e-25
-1.49111e-25
-1.86453e-25
-8.27277e-26
-1.03436e-25
-4.51361e-26
-5.64314e-26
-2.49019e-26
-3.11315e-26
-1.35704e-26
-1.69644e-26
-7.37053e-27
-9.21349e-27
-3.98574e-27
-4.98218e-27
-2.12016e-27
-2.65016e-27
-1.09918e-27
-1.37395e-27
-5.90707e-28
-7.38372e-28
-3.29037e-28
-1.92136e-28
-4.11294e-28
-1.2751e-50
4.32386e-47
5.40024e-45
-1.38067e-41
-2.14432e-39
-1.74193e-37
1.98821e-35
1.41062e-33
-1.15629e-31
-1.52854e-29
-6.77927e-29
-3.27984e-29
-1.23399e-28
0
0
0
0
0
0
0
0
0
0
0
0
0
0
0
0
0
-2.44716e-41
-1.00336e-38
-3.55458e-37
-1.4827e-35
-7.236e-36
-1.18376e-34
-7.72877e-35
-3.96126e-35
-2.99861e-35
-1.37451e-35
-7.53938e-36
-3.00631e-35
-2.92236e-35
-7.767e-34
-7.55382e-34
-4.33599e-34
-2.78347e-34
-3.53118e-34
-4.35561e-34
-1.21555e-33
-7.68156e-34
-1.56133e-33
-8.81445e-34
-6.26089e-34
-5.62154e-34
-4.10956e-34
-2.27235e-34
-3.42982e-34
-7.47932e-34
-1.70038e-33
-8.71218e-34
-5.46874e-34
-3.54319e-34
-2.53583e-34
-2.01361e-34
-2.15624e-34
-1.10863e-34
-1.14559e-34
-6.01608e-35
-3.40888e-35
-2.21581e-35
-1.10285e-35
-4.93012e-36
-3.22512e-36
-1.36281e-36
-5.55538e-37
-2.44969e-37
-1.13759e-37
-5.68189e-38
-2.20367e-38
-8.71965e-39
-3.67112e-39
-1.33247e-39
-3.70373e-40
-8.80121e-41
-2.81892e-42
2.06254e-41
1.44481e-41
5.90641e-42
5.25601e-42
2.68121e-42
1.12729e-42
5.06642e-43
2.58077e-43
1.6825e-43
6.93863e-44
3.02221e-44
1.284e-44
5.40883e-45
2.05796e-45
7.57046e-46
2.51008e-46
9.13679e-47
3.64789e-47
1.15538e-47
3.09289e-48
6.40754e-49
1.31857e-49
2.25265e-50
-1.74129e-50
-3.52055e-50
-1.38775e-50
-5.43137e-50
-1.67677e-112
-2.4864e-30
-1.02328e-30
-6.74785e-29
-2.84676e-29
-1.16743e-29
-2.82849e-31
1.59295e-33
2.03253e-34
9.39529e-37
-5.75587e-38
-1.0142e-39
7.25813e-42
2.32772e-43
1.97913e-45
-1.39025e-47
-1.68824e-49
-1.87696e-52
1.60058e-54
7.82772e-57
1.76968e-60
-3.89532e-61
-4.97242e-63
-1.63232e-65
-1.93773e-68
-6.38754e-71
-6.9785e-73
-3.94501e-75
-6.81595e-78
-1.27036e-81
-9.23066e-87
-2.12357e-95
-3.14293e-103
0.000637692
-1.51508e-109
0.129887
0.126453
0.108463
0.063206
0.0137866
-0.0241212
-0.0466516
-0.0507122
-0.0461085
-0.0389453
-0.0279351
-0.0192794
-0.0128522
-0.00806067
-0.00510181
-0.00305985
-0.00177156
-0.00104511
-0.000578592
-0.000322999
-0.000173604
-9.07556e-05
-4.83614e-05
-2.46793e-05
-1.24962e-05
-6.40379e-06
-3.12062e-06
-1.51904e-06
-7.37988e-07
-3.49778e-07
-1.69096e-07
-7.98719e-08
-3.67416e-08
-1.72874e-08
-7.81937e-09
-3.58897e-09
-1.60325e-09
-7.04017e-10
-3.157e-10
-1.35436e-10
-5.81886e-11
-2.50472e-11
-1.05717e-11
-4.47641e-12
-1.89984e-12
-7.75727e-13
-3.25664e-13
-1.31797e-13
-5.2755e-14
-2.15497e-14
-8.52892e-15
-3.41745e-15
-1.33443e-15
-5.12789e-16
-2.00628e-16
-7.54371e-17
-2.83938e-17
-1.06794e-17
-3.94851e-18
-1.45632e-18
-5.39542e-19
-1.91492e-19
-6.97584e-20
-2.45651e-20
-8.72354e-21
-3.02525e-21
-1.02767e-21
-3.52703e-22
-1.17873e-22
-3.88646e-23
-1.28746e-23
-4.11599e-24
-1.30225e-24
-4.06971e-25
-1.24171e-25
-3.79112e-26
-1.12406e-26
-3.29997e-27
-9.9601e-28
0.000786107
0.00050687
-0.00870954
0.00857179
0.05542
0.106745
0.145753
0.167872
0.172092
0.166667
-0.0163115
-0.00177131
-0.00148922
-0.00150203
-0.00142987
-0.00163053
-0.00176259
-0.00170866
-0.00174054
-0.00139586
-1.99609e-38
-0.00147344
8.5994e-46
-9.55377e-43
-1.8891e-40
-2.12441e-38
-2.38769e-38
2.17581e-34
1.30575e-33
-1.90178e-30
7.98479e-45
0
0
0
0
0
0
0
0
0
0
0
0
0
0
0
0
0
-5.40051e-39
-1.09718e-37
-1.20278e-36
-9.77352e-36
-7.93442e-36
-7.97697e-35
-5.11299e-35
-2.66393e-35
-2.00514e-35
-9.12407e-36
-7.88814e-36
-2.23026e-35
-3.7552e-35
-5.83199e-34
-5.62516e-34
-3.34006e-34
-3.22093e-34
-5.53254e-34
-4.06096e-34
-8.59057e-34
-6.00615e-34
-1.30379e-33
-6.27119e-34
-4.57215e-34
-3.95113e-34
-2.90805e-34
-1.85558e-34
-2.78263e-34
-6.46957e-34
-1.22592e-33
-6.83293e-34
-4.32205e-34
-3.12754e-34
-2.65452e-34
-1.53849e-34
-1.45781e-34
-8.53561e-35
-8.8667e-35
-4.25826e-35
-2.3604e-35
-1.49551e-35
-7.41222e-36
-3.31668e-36
-2.12649e-36
-8.72164e-37
-3.7171e-37
-1.72491e-37
-7.28162e-38
-3.49449e-38
-1.38517e-38
-5.45165e-39
-2.20939e-39
-8.01401e-40
-1.75953e-40
-4.02901e-41
4.73647e-42
1.51095e-41
9.00692e-42
4.13696e-42
3.93472e-42
1.76194e-42
7.85781e-43
3.91928e-43
1.67635e-43
1.05126e-43
4.90384e-44
1.80679e-44
8.25478e-45
3.19756e-45
1.23627e-45
4.43802e-46
1.43839e-46
5.79959e-47
2.18195e-47
6.10038e-48
1.4468e-48
2.87192e-49
4.42776e-50
-1.76976e-50
-1.47238e-50
-2.16265e-50
-1.23512e-50
-8.18685e-112
0
2.63808e-36
-1.17231e-37
-2.36451e-39
1.3106e-41
5.066e-43
4.66359e-45
-2.90963e-47
-3.87384e-49
-4.7983e-52
3.48827e-54
1.82646e-56
8.64957e-60
-8.38641e-61
-1.08141e-62
-3.75433e-65
-4.40654e-68
-1.3863e-70
-1.56058e-72
-8.91027e-75
-1.60349e-77
-3.02154e-81
-2.06328e-86
-4.92478e-95
-7.83805e-103
-5.12324e-109
-0.052144
-0.0629164
-0.0849634
-0.107704
-0.118803
-0.116014
-0.10121
-0.080631
-0.0613048
-0.0425414
-0.0285317
-0.0185389
-0.0114766
-0.00707563
-0.00420585
-0.00241969
-0.00139875
-0.000770209
-0.000427679
-0.000229301
-0.000119635
-6.32439e-05
-3.22981e-05
-1.62793e-05
-8.29072e-06
-4.03857e-06
-1.96574e-06
-9.53253e-07
-4.51928e-07
-2.17363e-07
-1.02589e-07
-4.71554e-08
-2.20893e-08
-9.99019e-09
-4.57913e-09
-2.04578e-09
-8.98088e-10
-4.01561e-10
-1.72511e-10
-7.40866e-11
-3.181e-11
-1.34345e-11
-5.67623e-12
-2.40666e-12
-9.83226e-13
-4.11797e-13
-1.66729e-13
-6.67133e-14
-2.72049e-14
-1.07632e-14
-4.3103e-15
-1.68301e-15
-6.46578e-16
-2.5267e-16
-9.50306e-17
-3.57438e-17
-1.34366e-17
-4.96728e-18
-1.83079e-18
-6.77889e-19
-2.40592e-19
-8.75634e-20
-3.08247e-20
-1.09422e-20
-3.79358e-21
-1.28836e-21
-4.41956e-22
-1.47663e-22
-4.86726e-23
-1.61173e-23
-5.15137e-24
-1.62946e-24
-5.09103e-25
-1.55298e-25
-4.7404e-26
-1.4053e-26
-4.12509e-27
-1.245e-27
-0.0076536
-0.00742516
0.0118839
0.0328871
0.0417293
0.037243
0.0196792
-0.00395701
0.00149973
0.00154319
0.00144451
0.001443
0.00143045
0.00142836
0.00142617
0.00144066
0.00144536
0.000651327
-0.00123749
-4.75852e-39
-3.73542e-37
4.7815e-35
2.8333e-33
-2.55873e-31
0
0
0
0
0
0
0
0
0
0
0
0
0
0
0
0
-6.14014e-39
-1.11283e-37
3.59269e-36
-1.0192e-35
1.13751e-36
-7.36862e-35
-5.29411e-35
-2.39946e-35
-2.05152e-35
-8.63628e-36
6.42199e-36
-1.27763e-35
1.3388e-36
-3.0704e-34
-4.72603e-34
-9.31225e-35
-7.16601e-35
-3.01014e-34
1.40311e-34
-5.52128e-34
-2.51348e-34
-1.1662e-33
-4.21127e-34
-2.1317e-34
-3.03826e-34
-1.59615e-34
-4.21319e-36
-6.72165e-35
-8.51557e-35
-6.73376e-34
-3.87483e-34
-5.67123e-35
-6.49758e-35
-1.11504e-34
-5.4575e-35
-1.13327e-34
-3.51249e-35
-7.43306e-35
-2.83696e-35
-1.56564e-35
-1.27688e-35
-6.87237e-36
-2.68024e-36
-2.06698e-36
-8.44082e-37
-3.58022e-37
-1.683e-37
-6.9043e-38
-3.62619e-38
-1.43491e-38
-5.69282e-39
-2.39754e-39
-8.74044e-40
-1.98829e-40
-6.04609e-41
-4.36773e-43
1.53955e-41
8.9604e-42
3.72233e-42
4.41334e-42
1.79391e-42
7.96261e-43
4.1972e-43
1.74744e-43
1.19512e-43
5.61903e-44
2.04198e-44
9.54314e-45
3.691e-45
1.45069e-45
5.19292e-46
1.67857e-46
6.94553e-47
2.58171e-47
7.00156e-48
1.65202e-48
3.25551e-49
5.2025e-50
-2.15979e-50
-1.83001e-50
-2.67509e-50
-1.613e-50
-1.36649e-40
4.0218e-42
5.23699e-44
1.19823e-46
-4.38372e-48
-2.31241e-50
3.40092e-53
2.99786e-55
7.40089e-58
-3.75404e-60
-1.09265e-61
-7.59059e-64
-1.28988e-66
-1.73635e-69
-1.46585e-71
-1.2852e-73
-4.43835e-76
-3.06894e-79
-1.20953e-83
-1.3418e-90
-6.38632e-99
-3.28285e-106
-0.0499446
-0.0567872
-0.0730331
-0.0976048
-0.115781
-0.118601
-0.110575
-0.0920942
-0.0709386
-0.0510833
-0.0355007
-0.0232667
-0.0147917
-0.00902789
-0.00550977
-0.00323525
-0.00184459
-0.00103251
-0.000574493
-0.000316566
-0.000168514
-8.72063e-05
-4.57912e-05
-2.32563e-05
-1.16479e-05
-5.75088e-06
-2.85775e-06
-1.38133e-06
-6.66077e-07
-3.1427e-07
-1.50557e-07
-7.06101e-08
-3.23483e-08
-1.47664e-08
-6.76449e-09
-3.08891e-09
-1.37547e-09
-6.01375e-10
-2.65753e-10
-1.14552e-10
-4.89493e-11
-2.0974e-11
-8.70275e-12
-3.70541e-12
-1.54769e-12
-6.38113e-13
-2.62985e-13
-1.0698e-13
-4.26984e-14
-1.7018e-14
-6.81223e-15
-2.71723e-15
-1.05741e-15
-4.04846e-16
-1.56393e-16
-5.8994e-17
-2.20727e-17
-8.28235e-18
-3.01239e-18
-1.11835e-18
-4.06404e-19
-1.45611e-19
-5.17851e-20
-1.83716e-20
-6.49417e-21
-2.24271e-21
-7.56812e-22
-2.5816e-22
-8.5759e-23
-2.80784e-23
-9.06983e-24
-2.93139e-24
-9.18533e-25
-2.85459e-25
-8.62923e-26
-2.61251e-26
-7.66186e-27
-2.24321e-27
-0.0024759
-0.00934175
0.000465292
0.0238158
0.0397363
0.0423382
0.0303831
0.00924195
-0.0117123
0.00139449
0.00145704
0.00142649
0.00137055
0.00137422
0.00138024
0.00140803
0.0017879
1.81656e-45
-2.40587e-42
-4.23687e-40
-4.87535e-38
3.08506e-37
4.76785e-34
4.70223e-34
-4.35545e-30
0
0
0
0
0
0
0
0
0
0
0
0
0
0
0
-2.24537e-41
2.63504e-38
1.05615e-36
-1.55333e-35
-7.66736e-36
-1.1051e-34
-8.0223e-35
-3.65894e-35
-3.13346e-35
-1.38686e-35
1.22288e-36
-2.70539e-35
-1.90168e-35
-4.08462e-34
-6.38432e-34
-7.57009e-35
3.6368e-35
1.26976e-34
-9.43541e-35
-1.10621e-33
-3.01498e-34
-1.35085e-33
-7.41695e-34
-2.99047e-34
-4.61174e-34
-2.50856e-34
-2.78451e-35
-2.76118e-34
-1.08057e-34
-9.21171e-34
-4.76771e-34
-1.23151e-35
2.54617e-35
1.5334e-35
-7.35383e-35
-1.84563e-34
-3.09235e-35
-9.20027e-35
-4.92449e-35
-2.15925e-35
-1.90948e-35
-9.97733e-36
-4.0379e-36
-3.11577e-36
-1.31193e-36
-5.2119e-37
-2.34122e-37
-1.045e-37
-5.93828e-38
-2.28209e-38
-9.05965e-39
-4.01158e-39
-1.44476e-39
-4.12316e-40
-1.04584e-40
-1.00127e-41
2.06977e-41
1.40097e-41
5.05696e-42
5.74913e-42
2.75544e-42
1.08401e-42
5.16291e-43
2.7033e-43
1.91543e-43
7.83774e-44
3.38678e-44
1.48549e-44
6.2008e-45
2.40949e-45
8.89334e-46
2.91489e-46
1.08626e-46
4.36567e-47
1.34182e-47
3.54965e-48
7.12927e-49
1.52231e-49
2.86199e-50
-2.14689e-50
-4.37963e-50
-1.70891e-50
1.87491e-33
-4.34239e-37
5.99037e-35
1.9891e-33
4.28466e-34
-0.000455389
-0.0486967
0.00273064
0.00138946
8.67694e-47
-3.28138e-41
0
0
0
0
0
0
0
0
0
0
0
0
0
0
0
0
0
0
0
0
0
0
0
0
0
0
0
0
0
0
0
0
0
0
0
0
0
0
0
0
0
0
0
0
0
0
0
0
0
0
0
0
0
0
0
0
0
0
0
0
0
0
0
0
0
0
0
0
0
0
0
0
0
0
0
0
0
0
0
0
0
0
0
0
0
0
0
0
0
0
0
0
0
0
0
0
0
0
0
0
0
0
0
0
0
0
0
0
0
0
0
0
0
0
0
0
0
0
0
0
0
0
0
0
0
0
0
0
0
0
0
0
0
0
0
0
0
0
0
0
0
0
0
0
0
0
0
0
0
0
0
0
0
0
0
0
0
0
0
0
0
0
0
0
0
0
0
0
0
0
0
0
0
0
0
0
0
0
0
0
0
0
0
0
0
0
0
0
0
0
0
0
0
0
0
0
0
-0.000459543
0
0
0
0
0
0
0
0
0
0
0
0
0
0
0
0
0
0
0
0
0
0
0
0
0
0
0
0
0
0
0
0
0
0
0
0
0
0
0
0
0
0
0
0
0
0
0
0
0
0
0
0
0
0
0
0
0
0
0
0
0
0
0
0
0
0
0
0
0
0
0
0
0
0
0
0
0
0
0
0
0
0
0
0
0
0
0
0
0
0
0
0
0
0
0
0
0
0
0
0
0
0
0
0
0
0
0
0
0
0
0
0
0
0
0
0
0
0
0
0
0
0
0
0
0
0
0
0
0
0
0
0
0
0
0
0
0
0
0
0
0
0
0
0
0
0
0
0
0
0
0
0
0
0
0
0
-2.28535e-142
-2.85351e-142
-1.3706e-140
-1.70718e-140
-1.78706e-140
-1.10077e-140
-2.43645e-137
-3.05231e-137
-4.22774e-137
-5.20049e-137
-2.7282e-137
-3.3521e-137
-2.16363e-136
-2.16116e-136
-8.04343e-136
-9.98417e-136
-5.45925e-136
-6.21704e-136
-4.18712e-134
-5.2011e-134
-2.93422e-134
-3.53778e-134
-1.87781e-134
-2.2766e-134
-4.92071e-134
5.18665e-134
-2.28416e-132
-2.65527e-132
-5.19254e-132
-6.0238e-132
-1.04999e-131
-1.21119e-131
-1.91563e-130
-2.1414e-130
-1.20834e-130
-1.38126e-130
-7.8694e-131
-8.73966e-131
-5.48774e-130
-6.5171e-130
-3.7448e-130
-4.42646e-130
-2.47464e-130
-2.94234e-130
-9.44059e-130
-1.1025e-129
-1.07187e-129
-1.24392e-129
-1.19473e-129
8.47196e-130
-1.01939e-129
2.72444e-130
-1.02481e-128
-1.17946e-128
-2.6636e-128
5.74875e-128
-2.49141e-126
-2.9471e-126
-1.63085e-126
-1.83189e-126
-1.06586e-126
-1.17052e-126
-7.19752e-127
-7.51053e-127
-1.01114e-125
-1.17586e-125
-7.64872e-126
-8.91426e-126
-4.96227e-126
-5.8211e-126
-1.87288e-125
-2.16612e-125
-2.65436e-125
-3.10553e-125
-1.74057e-125
-1.96213e-125
-6.13904e-125
-4.51338e-125
-3.49453e-124
-4.03219e-124
-2.32915e-124
-2.45409e-124
-6.86605e-124
-8.2771e-124
-4.41949e-124
-5.19712e-124
-2.82577e-124
-3.2882e-124
-1.84859e-124
-1.80766e-124
-2.52328e-124
-2.76878e-124
-5.06531e-124
-5.91895e-124
-3.39681e-124
-3.78477e-124
-4.21534e-123
-4.82353e-123
-4.72099e-123
-5.48931e-123
-3.04713e-123
-3.56999e-123
-2.89914e-123
-2.80781e-123
-5.48657e-123
-6.40261e-123
-3.8256e-123
-3.26858e-123
-1.12023e-122
-1.32757e-122
-7.21622e-123
-8.35855e-123
-4.52184e-123
-5.31403e-123
-3.46683e-123
-4.05346e-123
-2.31089e-123
-2.62405e-123
-1.77176e-123
-1.53508e-123
-5.44976e-122
-6.30754e-122
-3.67565e-122
-3.6268e-122
-5.67684e-122
-6.55179e-122
-3.75269e-122
-4.08612e-122
-3.08977e-121
-3.53088e-121
-2.20817e-121
-2.5386e-121
-1.43848e-121
-1.67693e-121
-2.07056e-121
-2.40543e-121
-2.02566e-121
-2.35515e-121
-2.21202e-121
1.48513e-121
-1.54926e-120
-1.66423e-120
-2.39416e-120
-2.85451e-120
-1.52975e-120
-1.81727e-120
-1.5334e-120
-1.84529e-120
-9.99965e-121
-1.14613e-120
-1.13339e-120
-1.35946e-120
-7.15708e-121
-8.5491e-121
-2.49872e-120
-2.92825e-120
-1.78191e-120
-2.09363e-120
-1.13924e-120
-1.35686e-120
-1.93245e-120
-2.27412e-120
-1.95638e-120
-2.31533e-120
-1.23181e-120
-1.47142e-120
-1.12056e-120
-1.15054e-120
-1.51598e-120
-1.7875e-120
-1.31903e-120
-1.39388e-120
-8.13592e-121
-8.99666e-121
-5.31008e-121
-5.17818e-121
-1.12332e-120
-1.3167e-120
-6.87824e-121
-8.15006e-121
-6.62569e-121
-7.80961e-121
-7.00362e-121
-8.45418e-121
-4.198e-121
-5.09186e-121
-6.66495e-121
-8.04119e-121
-5.62477e-121
-6.74053e-121
-3.44358e-121
-4.18028e-121
-2.28688e-121
-2.63064e-121
-2.29253e-121
-2.80925e-121
-1.41834e-121
-1.67349e-121
-2.20402e-121
-2.61796e-121
-1.79481e-121
-2.12094e-121
-1.05904e-121
-1.27113e-121
-7.29598e-122
-8.96014e-122
-4.882e-122
-5.90309e-122
-4.09091e-122
-3.26592e-122
-3.58198e-121
-4.30733e-121
-2.35939e-121
-2.78105e-121
-1.45225e-121
-1.71615e-121
-8.82643e-122
-1.05345e-121
-1.83332e-121
-2.21858e-121
-1.34058e-121
-1.62612e-121
-8.33463e-122
-1.01424e-121
-7.11844e-122
-8.65206e-122
-4.16885e-122
-4.95964e-122
-2.41971e-122
-2.91645e-122
-3.93395e-119
1.53593e-119
-2.45836e-115
-1.34452e-115
-2.56344e-112
-3.14969e-112
-1.71211e-112
-1.00357e-111
-2.13899e-112
-5.25706e-37
-3.43078e-31
-1.41965e-29
-8.22878e-29
-1.57174e-28
-2.63906e-29
5.19185e-34
2.41399e-33
1.12185e-33
-2.85466e-39
-0.000228667
1.58963e-41
6.12678e-43
5.63976e-45
-3.51072e-47
-4.67261e-49
-5.71548e-52
4.20257e-54
2.19833e-56
1.04974e-59
-1.00934e-60
-1.30401e-62
-4.50124e-65
-5.29385e-68
-1.68216e-70
-1.89134e-72
-1.07485e-74
-1.92715e-77
-3.58011e-81
-2.42556e-86
-5.72432e-95
-9.10978e-103
-6.09784e-109
-3.29578e-111
-0.0181061
-0.00104476
-0.01917
-0.0211092
-0.0226058
-0.0192459
-0.0120986
-0.00856971
-0.00503807
-0.00301637
-0.00111539
-0.000671725
-0.000406328
-3.79641e-05
0.000123999
2.54087e-05
2.01482e-05
1.1389e-05
5.45444e-06
5.76231e-06
-1.20761e-06
-1.21559e-06
-5.28089e-07
-7.36802e-07
-4.84428e-07
-3.91445e-07
-1.6396e-07
-1.02894e-07
-6.73204e-08
-2.73161e-08
-1.02264e-08
-6.68624e-09
-3.16596e-09
-1.94678e-09
-9.11043e-10
-3.76446e-10
-2.08878e-10
-1.0409e-10
-5.4686e-11
-2.40202e-11
-1.09756e-11
-5.40418e-12
-2.40379e-12
-9.41977e-13
-4.39443e-13
-1.82502e-13
-7.92995e-14
-3.5274e-14
-1.40703e-14
-6.34075e-15
-2.59969e-15
-9.88753e-16
-4.3046e-16
-1.75956e-16
-7.4523e-17
-2.90116e-17
-1.11403e-17
-4.55841e-18
-1.76023e-18
-6.32384e-19
-2.48532e-19
-9.03501e-20
-3.30082e-20
-1.2379e-20
-4.1628e-21
-1.53665e-21
-5.64355e-22
-1.93085e-22
-6.80706e-23
-2.32807e-23
-8.2032e-24
-2.69932e-24
-8.84033e-25
-2.95515e-25
-9.21497e-26
-2.78729e-26
-8.70523e-27
-2.61923e-27
-8.58297e-28
-0.0011874
-6.00174e-28
-5.7692e-39
0.000902681
0.00329722
0.00564289
0.00291533
-0.00317836
-0.00857039
-0.0134979
-0.0163414
0.00129241
-0.000450106
0.000861931
-0.0147361
0.000859149
-0.000410342
-0.000409705
1.06753e-46
0.000804459
0.000783995
0.000839727
0.000821135
0.000803471
0.00083867
0.000958337
0.00101272
-0.000359036
7.60823e-05
-2.41204e-38
-6.37058e-39
-0.0185936
-0.00292854
3.1823e-36
-9.94064e-37
-0.00224505
-0.00120191
3.1571e-05
0.000604665
0.000928372
0.00284052
0.00160206
0.00463595
0.00208191
0.00538908
0.00185049
0.00470936
0.000908647
0.00287029
-0.0003623
0.0005012
-0.0022383
-0.00141292
-0.00380541
-0.00403557
-0.00489717
-0.00688441
-0.00566894
-0.00913327
-0.00627852
-0.0111966
-0.00621859
-0.0125487
-0.0061958
-0.0140892
-0.00580032
-0.0152613
-0.00444953
-0.0140781
-0.00558106
-0.0156135
-0.00349443
-0.0168114
-0.00333481
-0.013927
-0.00236544
-0.013573
-0.00103928
-0.0148421
0.000347163
-0.0163727
-0.000913201
-0.0176838
-0.000374665
-0.0174969
0.000298373
-0.0173534
0.00211481
-0.0158336
0.00314377
-0.0124816
0.00454707
-0.00924522
0.00700943
-0.00760652
0.00957243
-0.00585928
0.00894112
-0.00544879
0.00953525
-0.00415068
0.00767078
-0.00209391
0.00720119
-0.00196858
0.00767483
-0.000584016
0.00586515
0.000292545
0.00570929
0.000345859
0.00536329
0.000846665
0.00423443
0.000495057
0.00404505
7.52853e-05
0.00293711
0.000209382
0.00201267
0.00028627
0.00173472
0.000345838
0.00143435
0.000210687
0.00122376
0.000215845
0.000865507
0.000231319
0.000703861
0.000126091
0.000591267
0.000133266
0.000396056
0.000120156
0.000322783
6.56229e-05
0.000261966
5.04143e-05
0.000169735
4.77203e-05
0.00012786
2.72461e-05
0.000102898
2.37647e-05
6.76739e-05
2.01197e-05
5.29289e-05
1.71284e-05
4.04661e-05
1.15698e-05
3.14384e-05
9.22009e-06
2.16764e-05
7.81151e-06
1.66071e-05
4.02173e-06
1.27696e-05
3.43885e-06
7.6846e-06
2.73747e-06
5.83564e-06
1.4276e-06
4.42889e-06
1.02644e-06
2.65111e-06
8.56837e-07
1.89823e-06
4.02823e-07
1.44354e-06
3.5103e-07
8.35538e-07
2.81505e-07
6.27252e-07
1.68274e-07
4.68254e-07
1.39042e-07
2.95201e-07
6.06825e-08
2.28055e-07
1.3217e-08
1.24247e-07
1.34236e-08
6.17174e-08
1.26207e-08
4.64674e-08
1.16622e-08
3.43733e-08
3.9103e-09
2.61733e-08
2.79746e-09
1.3926e-08
2.9076e-09
9.68117e-09
6.05043e-11
7.37701e-09
4.86057e-10
3.3225e-09
5.91306e-10
2.55106e-09
1.5744e-10
1.93098e-09
2.49912e-10
1.06622e-09
-1.24138e-10
8.51474e-10
-3.02395e-10
3.10535e-10
-1.791e-10
2.61804e-11
-1.01754e-10
3.96954e-11
-5.20432e-11
3.98452e-11
-4.77613e-11
3.85824e-11
-2.66915e-11
1.29868e-11
-1.25874e-11
1.31144e-11
-2.10393e-11
1.23619e-11
-1.20993e-11
-2.99268e-12
-6.69708e-12
-5.2807e-13
-7.84516e-12
5.96992e-13
-5.33705e-12
-2.5525e-12
-3.08288e-12
-1.74945e-12
-2.72367e-12
-8.35793e-13
-1.67626e-12
-1.18136e-12
-1.00653e-12
-6.78017e-13
-5.92068e-13
-3.76662e-13
-4.5113e-13
-1.98913e-13
-2.74101e-13
-1.91131e-13
-1.60255e-13
-1.0896e-13
-1.5858e-13
-5.78214e-14
-9.7191e-14
-8.53571e-14
-5.76064e-14
-4.95817e-14
-4.99517e-14
-2.8846e-14
-3.25832e-14
-2.93486e-14
-1.95134e-14
-1.88846e-14
-1.58416e-14
-1.10638e-14
-9.83184e-15
-1.01083e-14
-5.90441e-15
-6.07023e-15
-4.11753e-15
-3.63416e-15
-2.48155e-15
-2.6056e-15
-1.96527e-15
-1.57689e-15
-1.50541e-15
-1.3235e-15
-9.40967e-16
-1.0504e-15
-5.75204e-16
-6.45776e-16
-3.49434e-16
-3.90963e-16
-2.47032e-16
-2.38907e-16
-1.5562e-16
-1.7354e-16
-9.42539e-17
-1.08187e-16
-6.67826e-17
-6.50888e-17
-4.13826e-17
-4.80172e-17
-2.48052e-17
-2.89288e-17
-1.83621e-17
-1.74019e-17
-1.12488e-17
-1.32519e-17
-6.83181e-18
-8.09598e-18
-4.53691e-18
-4.85585e-18
-2.77797e-18
-3.30205e-18
-1.67071e-18
-1.99815e-18
-1.00202e-18
-1.19223e-18
-6.28362e-19
-7.14145e-19
-3.77985e-19
-4.51743e-19
-2.27103e-19
-2.73433e-19
-1.53386e-19
-1.6244e-19
-9.33373e-20
-1.12756e-19
-5.49e-20
-6.66806e-20
-3.62712e-20
-3.96739e-20
-2.21605e-20
-2.6394e-20
-1.30656e-20
-1.59711e-20
-8.32618e-21
-9.37815e-21
-4.9693e-21
-6.07521e-21
-2.90894e-21
-3.57584e-21
-1.70319e-21
-2.08158e-21
-1.02277e-21
-1.2163e-21
-5.99073e-22
-7.33953e-22
-3.52221e-22
-4.33353e-22
-2.00934e-22
-2.485e-22
-1.25436e-22
-1.44459e-22
-7.4074e-23
-9.03321e-23
-4.70531e-23
-5.30303e-23
-2.7998e-23
-3.40489e-23
-1.61237e-23
-2.00217e-23
-9.89158e-24
-1.1389e-23
-5.76582e-24
-7.14319e-24
-3.24303e-24
-4.03768e-24
-1.89449e-24
-2.27921e-24
-1.07104e-24
-1.32591e-24
-6.48721e-25
-7.56794e-25
-3.93488e-25