/*--------------------------------*- C++ -*----------------------------------*\
  =========                 |
  \\      /  F ield         | OpenFOAM: The Open Source CFD Toolbox
   \\    /   O peration     | Website:  https://openfoam.org
    \\  /    A nd           | Version:  7
     \\/     M anipulation  |
\*---------------------------------------------------------------------------*/
FoamFile
{
    version     2.0;
    format      ascii;
    class       volScalarField;
    location    "0.25";
    object      T;
}
// * * * * * * * * * * * * * * * * * * * * * * * * * * * * * * * * * * * * * //

dimensions      [0 0 0 1 0 0 0];

internalField   nonuniform List<scalar> 
23686
(
0.509941
0.910643
0.997281
0.975488
1.00718
1.01727
1.00286
1.00909
1.00026
1.00127
0.999752
0.999407
0.999891
0.999663
0.999996
0.99997
1.00001
1.00004
1.00001
1.00002
1
1
1
0.999999
1
1
1
1
1
1
1
1
1
1
1
1
1
1
1
1
1
1
1
1
1
1
1
1
1
1
1
1
1
1
1
1
1
1
1
1
1
1
1
1
1
1
1
1
1
1
1
1
1
1
1
1
1
1
1
1
1
1
1
1
1
1
1
1
1
1
1
1
1
1
1
1
1
1
1
1
1
1
1
1
1
1
1
1
1
1
1
1
1
1
1
1
1
1
1
1
1
1
1
1
1
1
1
1
1
1
1
1
1
1
1
1
1
1
1
1
1
1
1
1
1
1
1
1
1
1
1
1
1
1
1
1
1
1
1
1
1
1
1
1
1
1
1
1
1
1
1
1
1
1
1
1
1
1
1
1
1
1
1
1
1
1
1
1
1
1
1
1
1
1
1
1
1
0.999998
1
0.11164
-0.00310633
-0.000317312
5.52951e-05
-1.02843e-05
1.57544e-07
1.8249e-07
-2.94494e-08
-1.8305e-10
1.18016e-09
1.98828e-12
-3.45918e-11
-3.23126e-12
2.10239e-13
5.76807e-14
4.25601e-15
-1.13197e-16
-4.17684e-17
-3.20465e-18
-4.43386e-20
2.02393e-20
2.04745e-21
8.99133e-23
-1.13457e-24
-5.81056e-25
-4.64797e-26
-1.97609e-27
-1.00735e-29
5.8329e-30
5.88099e-31
3.74158e-32
1.23832e-33
-9.67007e-36
-3.65866e-36
-2.93429e-37
-1.17678e-38
-2.54606e-40
1.01399e-41
1.25962e-42
7.00625e-44
2.82036e-45
7.59851e-47
1.78087e-50
-1.42349e-49
-1.1552e-50
-4.95142e-52
-1.33499e-53
-1.71349e-55
1.15134e-56
5.77603e-74
2.69524e-57
-2.3226e-55
-3.81639e-54
1.03231e-51
-1.64884e-50
-1.57635e-49
3.30081e-48
1.57948e-46
4.93017e-47
-1.44768e-43
-3.9332e-42
2.82144e-41
2.46716e-42
-3.04489e-39
-3.60582e-38
1.50749e-36
-3.70057e-36
1.77662e-35
1.72909e-33
-2.29359e-32
-2.12202e-31
-2.26782e-30
-1.72394e-29
6.36665e-28
1.37553e-27
-2.30713e-26
-2.08078e-26
-2.87773e-25
-1.22129e-24
-1.42448e-23
4.59132e-23
-9.09954e-23
-2.69887e-22
6.27662e-22
-1.54326e-21
-1.37267e-20
1.06827e-19
4.37912e-19
1.40282e-18
3.64395e-18
9.42219e-18
2.07091e-17
4.03042e-17
6.86214e-17
1.03877e-16
1.39857e-16
1.76811e-16
1.8819e-16
1.56394e-16
1.60374e-16
1
0.999995
1.00001
1.00001
1.00001
1.00002
0.999942
0.999954
1.00003
0.999984
1.00005
1.00004
1.00014
1.00012
1.00004
1.00009
0.999423
0.99963
0.99908
0.999118
1.00056
1.00002
1.00248
1.00171
1.0037
1.00306
1.00264
1.00293
0.99706
0.999069
0.983391
0.988028
0.958287
0.966177
0.920323
0.932321
0.868267
0.884512
0.805257
0.823931
0.733262
0.754694
0.654713
0.678424
0.573026
0.596816
0.494347
0.516695
0.417383
0.439049
0.346524
0.366485
0.281675
0.299841
0.227391
0.242584
0.180951
0.193975
0.140188
0.151295
0.108019
0.1167
0.081913
0.0889142
0.0609759
0.0664989
0.0451687
0.0493238
0.0331996
0.0363909
0.0237198
0.0261766
0.0170293
0.018764
0.0121049
0.0133811
0.00845853
0.00940002
0.00593809
0.00660535
0.00405671
0.0045407
0.00278829
0.00311607
0.00188634
0.00211547
0.00125079
0.00140829
0.000836301
0.000940091
0.000558335
0.000629185
0.000360634
0.000408884
0.000235823
0.00026666
0.000153521
0.000173955
9.81569e-05
0.000111914
6.20892e-05
7.08224e-05
3.96267e-05
4.50693e-05
2.51808e-05
2.87358e-05
1.57513e-05
1.80455e-05
9.74683e-06
1.11833e-05
6.07533e-06
6.96121e-06
3.78663e-06
4.35072e-06
2.29262e-06
2.64803e-06
1.41144e-06
1.62517e-06
8.57462e-07
9.90231e-07
5.09196e-07
5.89467e-07
3.09497e-07
3.57144e-07
1.87525e-07
2.16965e-07
1.09728e-07
1.27598e-07
6.5602e-08
7.60002e-08
3.91371e-08
4.5395e-08
2.29146e-08
2.67354e-08
1.32873e-08
1.55018e-08
7.86788e-09
9.146e-09
4.57782e-09
5.3388e-09
2.65932e-09
3.10482e-09
1.50782e-09
1.76509e-09
8.74059e-10
1.02004e-09
5.07972e-10
5.94468e-10
2.84879e-10
3.34868e-10
1.63682e-10
1.9176e-10
9.29014e-11
1.09125e-10
5.19421e-11
6.10591e-11
2.93305e-11
3.44153e-11
1.66514e-11
1.95845e-11
9.10635e-12
1.07527e-11
5.10564e-12
6.00339e-12
2.85996e-12
3.36614e-12
1.56678e-12
1.85009e-12
8.79326e-13
1.03831e-12
4.76255e-13
5.64761e-13
2.63259e-13
3.11064e-13
1.42568e-13
1.68975e-13
7.59261e-14
9.0145e-14
4.12908e-14
4.88154e-14
2.25852e-14
2.67858e-14
1.18735e-14
1.41427e-14
6.40303e-15
7.61089e-15
3.51093e-15
4.18771e-15
1.91344e-15
2.30662e-15
1.04575e-15
1.27423e-15
6.03308e-16
7.44373e-16
3.27219e-16
1.97682e-16
4.05409e-16
3.04465e-57
1.59524e-16
0.0139069
-0.00200433
0.000101711
-3.3571e-06
-3.4163e-06
5.11967e-07
-5.20551e-09
-1.1752e-08
1.97144e-09
3.45985e-10
-5.55927e-11
-1.32247e-11
-2.70249e-13
1.39569e-13
1.83984e-14
5.51073e-16
-1.02681e-16
-1.3024e-17
-5.99098e-19
2.99839e-20
7.28069e-21
4.83805e-22
1.09345e-23
-1.31573e-24
-1.74957e-25
-1.05026e-26
-2.76086e-28
1.0484e-29
2.06202e-30
1.53447e-31
7.61773e-33
1.26374e-34
-1.0032e-35
-1.11112e-36
-6.29762e-38
-1.97228e-39
-7.22801e-42
4.37407e-42
3.17668e-43
1.44777e-44
4.88469e-46
8.67816e-48
-3.63985e-49
-4.29344e-50
-2.56718e-51
-8.65719e-53
-1.83328e-54
1.04082e-56
-0.00133342
3.91752e-57
1.98783e-16
-1.20116e-56
-1.48911e-54
-1.3151e-53
2.21999e-53
-5.19926e-51
-9.11384e-49
2.19058e-47
-8.10531e-46
1.55321e-44
6.70009e-43
8.74333e-42
-2.83046e-41
-8.77844e-40
1.59981e-38
-1.44592e-37
-2.21727e-36
2.00963e-35
-6.74826e-34
5.91712e-34
1.25871e-31
-8.08001e-33
1.60285e-29
-1.56345e-28
-1.31474e-27
4.993e-27
3.39237e-26
2.74852e-26
6.78731e-25
5.94818e-24
-2.54478e-25
6.65317e-24
6.10761e-23
-8.59226e-22
1.89602e-21
-1.19561e-20
1.9393e-20
2.309e-19
7.89703e-19
2.3051e-18
6.03808e-18
1.42565e-17
2.94894e-17
5.33191e-17
8.64063e-17
1.22093e-16
1.61102e-16
1.86988e-16
1.8118e-16
0.000148736
0.0642368
-2.77133e-05
0.453368
0.00014071
1.51892e-06
-1.07032e-05
1.37701e-06
1.41905e-08
-3.55015e-08
6.05601e-09
1.21755e-09
-1.7096e-10
-4.71722e-11
-1.57659e-12
4.79819e-13
6.90863e-14
2.66913e-15
-3.09416e-16
-4.9007e-17
-2.58048e-18
7.00779e-20
2.66905e-20
1.98419e-21
5.58545e-23
-3.84669e-24
-6.67817e-25
-4.36053e-26
-1.34832e-27
2.70889e-29
7.69107e-30
5.87604e-31
3.17233e-32
7.11878e-34
-3.10645e-35
-4.07467e-36
-2.6873e-37
-8.97894e-39
-9.6069e-41
1.48026e-41
1.26034e-42
6.2138e-44
2.19466e-45
4.68938e-47
-1.12576e-48
-1.61218e-49
-1.05205e-50
-4.00108e-52
-9.14961e-54
-2.90673e-56
1.29163e-56
-1.77037e-54
-9.86145e-54
-1.22945e-53
-1.23745e-50
-1.08752e-48
2.54353e-47
-8.70206e-46
1.87533e-44
7.12844e-43
8.89425e-42
-3.55378e-41
-9.35322e-40
1.93468e-38
-1.26016e-37
-1.83385e-36
2.6623e-35
-7.28263e-34
8.72746e-34
1.38012e-31
-6.98709e-32
1.72324e-29
-1.70176e-28
-1.38944e-27
5.50153e-27
3.64734e-26
3.17949e-26
7.37713e-25
6.53284e-24
-2.98933e-26
8.75325e-24
5.78094e-23
-9.93075e-22
2.13253e-21
-1.42663e-20
2.65213e-20
2.92113e-19
9.97927e-19
2.90485e-18
7.61703e-18
1.80563e-17
3.69999e-17
6.71345e-17
1.08702e-16
1.53813e-16
2.01376e-16
2.33351e-16
2.23881e-16
-1.3892e-56
-1.49961e-07
5.49714e-07
-8.19585e-08
-1.27725e-09
3.74923e-09
7.46429e-11
-1.15429e-10
-1.26582e-11
4.86958e-13
2.05974e-13
1.72869e-14
-1.02437e-16
-1.45903e-16
-1.29204e-17
-2.87898e-19
6.18388e-20
8.00738e-21
4.00181e-22
5.63732e-25
-1.88314e-24
-1.7881e-25
-8.67372e-27
-1.15469e-28
1.96906e-29
2.31951e-30
1.41167e-31
5.64636e-33
5.23662e-36
-1.34638e-35
-1.11239e-36
-5.24418e-38
-1.30229e-39
2.29107e-41
4.87255e-42
3.01918e-43
1.21585e-44
3.48986e-46
2.39104e-48
-5.25225e-49
-4.25459e-50
-2.19676e-51
-6.46544e-53
-1.01872e-54
3.07643e-56
-3.11204e-54
1.19236e-51
-2.02375e-50
-1.73794e-49
4.5937e-48
1.83968e-46
-4.37117e-46
-1.68254e-43
-4.1555e-42
3.67948e-41
-3.46586e-41
-4.03619e-39
-4.43481e-38
1.5805e-36
-6.23998e-36
7.10917e-36
1.855e-33
-2.4776e-32
-2.23866e-31
-2.34506e-30
-1.94924e-29
6.79209e-28
1.41997e-27
-2.53172e-26
-2.3339e-26
-3.24584e-25
-1.28247e-24
-1.60971e-23
5.33755e-23
-1.06504e-22
-3.37861e-22
7.3942e-22
-2.17128e-21
-1.53794e-20
1.34876e-19
5.53386e-19
1.76987e-18
4.61566e-18
1.19365e-17
2.60746e-17
5.05907e-17
8.64591e-17
1.31064e-16
1.75916e-16
2.20791e-16
2.33539e-16
1.98595e-16
-0.00528112
-0.00556034
-3.15313e-55
0.594883
-0.00160974
0.942445
1.00339
0.979132
1.00791
1.01325
1.00265
1.0076
0.999943
1.00095
0.999656
0.999353
0.999884
0.999646
1
0.999954
1.00002
1.00003
1.00001
1.00002
0.999998
0.999999
0.999998
0.999994
0.999998
0.999995
0.999998
0.999995
0.999998
0.999995
0.999998
0.999995
0.999999
0.999995
0.999998
0.999995
0.999999
0.999995
0.999999
0.999995
0.999999
0.999996
0.999999
0.999996
0.999998
0.999995
0.999998
0.999995
0.999999
0.999996
0.999998
0.999995
0.999998
0.999995
0.999998
0.999995
0.999999
0.999995
0.999999
0.999996
0.999998
0.999995
0.999998
0.999995
0.999998
0.999995
0.999999
0.999995
0.999998
0.999995
0.999998
0.999995
0.999999
0.999995
0.999999
0.999996
0.999999
0.999996
0.999998
0.999995
0.999999
0.999995
0.999999
0.999996
0.999998
0.999995
0.999998
0.999995
0.999998
0.999995
0.999998
0.999995
0.999998
0.999995
0.999998
0.999995
0.999998
0.999995
0.999998
0.999995
0.999998
0.999995
0.999998
0.999996
0.999999
0.999996
0.999999
0.999995
0.999999
0.999995
0.999999
0.999996
0.999998
0.999995
0.999999
0.999995
0.999999
0.999996
0.999998
0.999995
0.999998
0.999995
0.999998
0.999995
0.999998
0.999995
0.999998
0.999995
0.999998
0.999995
0.999998
0.999995
0.999998
0.999995
0.999998
0.999995
0.999998
0.999996
0.999999
0.999996
0.999999
0.999996
0.999999
0.999995
0.999999
0.999996
0.999998
0.999995
0.999998
0.999995
0.999998
0.999995
0.999998
0.999995
0.999998
0.999995
0.999998
0.999995
0.999999
0.999995
0.999999
0.999996
0.999999
0.999996
0.999999
0.999996
0.999998
0.999996
0.999998
0.999995
0.999998
0.999995
0.999999
0.999996
0.999999
0.999996
0.999998
0.999995
0.999999
0.999995
0.999998
0.999995
0.999998
0.999995
0.999998
0.999995
0.999998
0.999995
0.999997
0.999994
0.999996
0.999995
0.999994
0.999997
0.999995
-5.85923e-55
0.002611
0.000236193
0.235597
-1.06027e-05
-3.47174e-06
7.20125e-07
-3.62646e-08
-1.95754e-08
2.99299e-09
7.66835e-10
-1.07574e-11
-1.69645e-11
-1.33176e-12
4.74397e-14
2.05375e-14
1.68244e-15
-1.07376e-17
-1.22074e-17
-1.21937e-18
-4.24698e-20
3.48941e-21
5.39604e-22
3.53493e-23
7.3902e-25
-8.18207e-26
-1.10253e-26
-5.8801e-28
-1.75855e-29
4.72262e-31
1.05179e-31
7.39107e-33
3.07297e-34
4.47881e-36
-4.30484e-37
-4.71328e-38
-2.6677e-39
-9.7244e-41
-8.72238e-43
1.27869e-43
1.20043e-44
5.42161e-46
1.83223e-47
3.02936e-49
-1.40153e-50
-1.56972e-51
-7.96383e-53
-3.18462e-54
-6.33119e-56
2.25769e-55
-0.00445054
-0.00527185
-0.0042131
1.86507e-57
2.79459e-16
4.17752e-16
-1.30518e-05
-1.12481e-05
0.517419
1.69501e-51
-3.33672e-50
-2.49902e-49
9.62339e-48
2.32437e-46
-8.43874e-46
-2.42197e-43
-5.38611e-42
5.66017e-41
-1.47112e-40
-5.76114e-39
-7.60342e-38
2.22295e-36
-1.00997e-35
-3.83902e-35
2.94189e-33
-3.09778e-32
-3.76087e-31
-2.63334e-30
-4.22245e-29
1.00157e-27
2.72689e-27
-3.90595e-26
-5.23466e-26
-4.68073e-25
-1.96894e-24
-2.69773e-23
8.30769e-23
-1.6961e-22
-6.47425e-22
1.63894e-21
-5.57416e-21
-1.56273e-20
2.38246e-19
8.91076e-19
2.80071e-18
7.2486e-18
1.86058e-17
3.97898e-17
7.58809e-17
1.28988e-16
1.90909e-16
2.57586e-16
3.16488e-16
3.31832e-16
2.55134e-16
3.3928e-16
0.0528653
0.185682
0.025489
7.61139e-05
0.000473521
6.60336e-05
7.73152e-06
1.00001
1.00001
1
1.00001
0.999946
0.999946
1.00002
0.999977
1.00004
1.00003
1.00013
1.00013
0.999973
1.00011
0.999386
0.999578
0.999224
0.998992
1.00079
0.999997
1.00229
1.00163
1.00307
1.00307
1.00204
1.00364
0.99655
1.00082
0.982699
0.991238
0.956916
0.970538
0.919162
0.93735
0.868263
0.892643
0.804221
0.832612
0.732261
0.762525
0.65614
0.687439
0.5749
0.607958
0.493436
0.524203
0.417973
0.446922
0.347388
0.373586
0.283643
0.307301
0.228831
0.248657
0.182295
0.198686
0.141809
0.155971
0.108757
0.119903
0.0824077
0.0911785
0.0615965
0.0685355
0.0455438
0.0508272
0.0334911
0.0373698
0.024143
0.0271656
0.0172371
0.0194385
0.0121849
0.0137456
0.00863799
0.00977334
0.00605205
0.00683914
0.0041721
0.00475618
0.00284794
0.00324861
0.0019219
0.00219811
0.00127782
0.00146942
0.000853237
0.000980233
0.000568698
0.000651495
0.000370641
0.000428062
0.000240467
0.000278071
0.000155811
0.000180037
0.000101293
0.000116994
6.43579e-05
7.49786e-05
3.9978e-05
4.65581e-05
2.57733e-05
2.98617e-05
1.62693e-05
1.89353e-05
1.00525e-05
1.17602e-05
6.25471e-06
7.30464e-06
3.90188e-06
4.54344e-06
2.3947e-06
2.81089e-06
1.46294e-06
1.71562e-06
8.85664e-07
1.04035e-06
5.26684e-07
6.21645e-07
3.20757e-07
3.76973e-07
1.93438e-07
2.26892e-07
1.14653e-07
1.35404e-07
6.78845e-08
8.02239e-08
4.01828e-08
4.7393e-08
2.39807e-08
2.82327e-08
1.39875e-08
1.66056e-08
8.06026e-09
9.54597e-09
4.76857e-09
5.64123e-09
2.75659e-09
3.26521e-09
1.57001e-09
1.87035e-09
9.10593e-10
1.08095e-09
5.31515e-10
6.28119e-10
3.01458e-10
3.595e-10
1.71684e-10
2.04315e-10
9.67657e-11
1.1516e-10
5.44748e-11
6.50185e-11
3.06112e-11
3.65449e-11
1.73509e-11
2.06256e-11
9.64769e-12
1.15394e-11
5.34589e-12
6.39901e-12
2.94659e-12
3.51856e-12
1.65962e-12
1.98222e-12
9.26375e-13
1.10197e-12
5.08271e-13
6.09948e-13
2.78023e-13
3.33266e-13
1.49807e-13
1.79733e-13
7.98978e-14
9.64078e-14
4.35246e-14
5.22848e-14
2.37023e-14
2.83611e-14
1.26754e-14
1.5269e-14
6.7413e-15
8.13056e-15
3.71081e-15
4.45064e-15
2.12902e-15
2.53725e-15
1.26599e-15
1.52493e-15
0.759785
-3.43246e-56
-0.000422575
0.806072
-7.52915e-55
0.000213678
-2.30614e-54
-3.05001e-56
5.35559e-07
1.91095e-07
-5.14394e-08
-1.18519e-09
2.05657e-09
1.64918e-10
-3.06322e-11
-5.81183e-12
-1.53193e-13
4.54692e-14
7.0073e-15
2.39331e-16
-2.60521e-17
-4.1689e-18
-2.84457e-19
1.25286e-21
1.64495e-21
1.51571e-22
6.51052e-24
-8.5046e-26
-3.41772e-26
-2.82176e-27
-1.13554e-28
-1.17203e-30
3.03592e-31
3.00636e-32
1.66104e-33
4.62455e-35
-4.71547e-37
-1.75554e-37
-1.12634e-38
-5.61447e-40
-1.26676e-41
2.14967e-43
4.31348e-44
2.78146e-45
1.05044e-46
2.73065e-48
-2.46023e-51
-5.4707e-51
-3.87301e-52
-1.6215e-53
-5.20754e-55
-2.22648e-54
-3.88925e-07
2.71342e-53
-1.41389e-51
-2.81188e-50
-1.31459e-48
4.01023e-47
-1.22722e-45
2.39451e-44
8.8647e-43
1.44573e-41
-7.67143e-41
-1.40316e-39
2.94279e-38
-5.70351e-38
-2.59454e-36
4.48524e-35
-9.28622e-34
1.7508e-34
1.98267e-31
-1.23614e-31
2.38865e-29
-2.10468e-28
-2.25487e-27
6.05517e-27
6.2516e-26
4.46306e-26
1.17385e-24
9.2886e-24
9.25404e-24
-1.03709e-23
8.72183e-23
-1.3656e-21
2.81267e-21
-2.26617e-20
6.17434e-20
4.77955e-19
1.58025e-18
4.52058e-18
1.17772e-17
2.81427e-17
5.57093e-17
9.97005e-17
1.58644e-16
2.25534e-16
2.87788e-16
3.30533e-16
3.15454e-16
1.52671e-06
-4.92485e-12
-3.08674e-54
-4.29038e-11
7.64705e-16
-2.74556e-05
4.7927e-11
4.03277e-16
3.87065e-16
3.13416e-16
2.2982e-16
1.55059e-16
9.12455e-17
4.76712e-17
2.19936e-17
8.61228e-18
3.29222e-18
1.03832e-18
2.71901e-19
-2.1827e-20
-6.10642e-21
1.76088e-21
-7.41479e-22
-2.01224e-22
9.93281e-23
-3.18616e-23
-2.37008e-24
-5.91712e-25
-5.64056e-26
-4.69426e-26
2.79822e-27
1.21687e-27
-4.30791e-29
-3.52711e-30
-4.13238e-31
-4.10666e-32
3.39633e-33
-3.92042e-35
-1.48748e-35
2.6625e-36
-9.32678e-38
-8.18834e-39
-1.48632e-40
7.79381e-41
-6.76885e-42
-3.08957e-43
-1.57808e-45
3.22136e-46
1.10521e-47
-3.12124e-49
-3.52911e-55
-1.26583e-53
-3.30029e-52
-5.68399e-51
-3.85508e-50
1.54414e-48
7.80143e-47
2.34126e-45
4.16061e-44
3.69468e-43
-6.14161e-42
-4.19989e-40
-9.64901e-39
-1.72564e-37
-1.22934e-36
2.48201e-35
1.26444e-33
2.7148e-32
3.47585e-31
6.55042e-31
-7.73196e-29
-2.38129e-27
-3.47083e-26
-2.1325e-25
3.9363e-24
1.3072e-22
1.74143e-21
7.92489e-21
-1.93997e-19
-3.92114e-18
-3.60193e-17
5.02511e-17
6.03978e-15
5.658e-14
3.53588e-14
3.76265e-16
4.01121e-16
3.50836e-16
2.73608e-16
1.91191e-16
1.19454e-16
6.69119e-17
3.33927e-17
1.39373e-17
5.34965e-18
1.84701e-18
5.53571e-19
6.50532e-20
-2.70315e-20
3.49642e-21
-1.71014e-21
1.1671e-22
-1.42943e-24
7.04304e-24
1.14538e-23
1.38061e-24
6.42756e-26
7.0902e-26
8.70611e-27
-2.55635e-27
-2.82409e-28
2.94784e-29
-2.04451e-31
2.41718e-31
1.13358e-33
-1.16848e-33
6.01022e-35
-2.27006e-36
-1.23973e-37
3.77086e-38
-1.6186e-39
-8.71918e-41
1.51572e-41
1.1398e-42
3.41371e-44
-1.50545e-45
1.50566e-53
-2.35052e-54
-6.50219e-53
-1.43754e-51
-1.86768e-50
8.41001e-50
1.20938e-47
4.24802e-46
1.0652e-44
1.44102e-43
2.14147e-43
-6.27995e-41
-2.16025e-39
-4.25689e-38
-5.27168e-37
2.72628e-37
2.06428e-34
6.06131e-33
1.04046e-31
8.24495e-31
-8.49152e-30
-4.40986e-28
-1.01268e-26
-1.01322e-25
6.06967e-26
2.65626e-23
5.06544e-22
4.71848e-21
-1.23088e-20
-1.0147e-18
-1.31368e-17
-5.75345e-17
1.07084e-15
2.07252e-14
1.03589e-13
-7.7923e-13
-1.81419e-11
-6.02079e-11
6.11823e-10
5.35198e-09
-9.1481e-09
-1.12989e-07
6.20871e-07
5.7148e-09
-5.57288e-08
2.42427e-09
2.37658e-09
-4.14302e-50
2.20526e-51
-8.87152e-52
-3.72022e-50
-1.98445e-48
4.86624e-47
0.000277507
0.982242
1.00991
1.00371
1.00638
1.01397
1.00125
1.00492
0.99971
1.00021
0.999712
0.999459
0.999922
0.999747
1.00001
0.999982
1.00001
1.00003
1
1.00002
0.999998
1
0.999997
1
0.999998
1
0.999999
1
0.999999
1
0.999999
1
0.999998
1
0.999998
1
0.999998
1
0.999998
1
0.999998
1
0.999998
1
0.999998
1
0.999998
1
0.999998
1
0.999998
1
0.999998
1
0.999998
1
0.999998
1
0.999999
1
0.999999
1
0.999999
1
0.999999
1
0.999998
1
0.999998
1
0.999998
1
0.999998
1
0.999998
1
0.999998
1
0.999998
1
0.999998
1
0.999998
1
0.999998
1
0.999998
1
0.999999
1
0.999998
1
0.999999
1
0.999999
1
0.999999
1
0.999999
1
0.999998
1
0.999998
1
0.999998
1
0.999998
1
0.999999
1
0.999998
1
0.999998
1
0.999998
1
0.999998
1
0.999998
1
0.999998
1
0.999998
1
0.999998
1
0.999999
1
0.999999
1
0.999998
1
0.999999
1
0.999998
1
0.999998
1
0.999998
1
0.999998
1
0.999999
1
0.999998
1
0.999999
1
0.999998
1
0.999999
1
0.999999
1
0.999998
1
0.999998
1
0.999998
1
0.999998
1
0.999998
1
0.999998
1
0.999998
1
0.999998
1
0.999998
1
0.999998
1
0.999998
1
0.999999
1
0.999998
1
0.999999
1
0.999999
1.00001
1
1.00001
1
1.00001
1.00001
1.00001
1.00001
7.1699e-47
-1.10686e-05
2.91741e-11
-4.24888e-51
9.58511e-16
-1.10557e-11
-2.51019e-08
1.7723e-09
9.50512e-07
1.3515e-07
-6.32615e-08
-7.32076e-08
-3.84405e-09
-1.83918e-08
1.03199e-09
5.61042e-16
5.58388e-16
2.28558e-10
1.50841e-10
-3.65753e-54
-1.27317e-11
-2.39049e-11
5.23252e-16
-1.39236e-12
-4.38891e-14
1.10714e-14
1.45683e-15
6.22089e-17
-4.20036e-18
-8.63694e-19
-6.07917e-20
-1.01234e-21
2.27347e-22
2.44949e-23
1.40931e-24
2.02441e-26
-3.97421e-27
-4.24247e-28
-2.2522e-29
-6.64524e-31
1.97302e-32
3.66224e-33
2.56403e-34
9.82031e-36
1.16893e-37
-1.55067e-38
-1.48717e-39
-7.56938e-41
-2.52218e-42
-2.434e-44
3.70568e-45
3.10459e-46
1.66702e-47
5.64268e-49
8.7951e-51
-3.20749e-52
-3.97948e-53
-1.63702e-05
-2.47e-05
-2.24679e-48
-7.10417e-50
3.06815e-51
-3.52605e-51
-4.37809e-49
-3.4027e-48
2.12001e-47
2.49064e-47
8.9388e-47
1.01667e-52
3.98922e-51
-2.3516e-45
4.48779e-44
1.45333e-42
2.35994e-41
-1.90319e-40
-2.42267e-39
5.92441e-38
3.23763e-38
-3.239e-36
9.45091e-35
-1.51309e-33
-4.40507e-35
3.4905e-31
-3.16738e-31
4.075e-29
-3.46162e-28
-3.77539e-27
9.9044e-27
1.21107e-25
1.0291e-25
2.16401e-24
1.64098e-23
2.91028e-23
-4.92934e-23
1.86933e-22
-2.2953e-21
3.94536e-21
-4.10575e-20
1.41479e-19
9.07612e-19
2.94013e-18
8.34429e-18
2.18944e-17
5.05483e-17
1.01411e-16
1.78266e-16
2.78695e-16
3.91921e-16
5.05774e-16
5.66061e-16
6.85684e-16
-1.82709e-06
-7.96495e-06
8.49688e-07
1.00001
1.00001
0.999956
0.99997
0.999996
0.999974
1.00002
1.00002
1.00012
1.00012
1.00002
1.00014
0.999501
0.999672
0.999293
0.999099
1.00059
0.999962
1.00168
1.00123
1.00259
1.00264
1.00245
1.0038
0.998141
1.00213
0.985928
0.993896
0.962313
0.975368
0.927122
0.945059
0.878909
0.902295
0.817565
0.84529
0.746492
0.776672
0.670163
0.701484
0.589728
0.621802
0.508641
0.54035
0.431256
0.460464
0.36053
0.387362
0.295617
0.319674
0.239423
0.259742
0.190266
0.206985
0.148652
0.163146
0.114219
0.125734
0.0868541
0.0961201
0.0649382
0.0722499
0.0482805
0.0538271
0.0355283
0.0396806
0.0255749
0.0287715
0.018435
0.0207575
0.0130144
0.0147044
0.00922729
0.0104319
0.00643845
0.0072818
0.0044777
0.00509211
0.00305992
0.00348453
0.00206622
0.0023643
0.00137622
0.00158054
0.000925403
0.00106111
0.000612246
0.000703438
0.000396722
0.000458873
0.000260429
0.000300487
0.000169318
0.000195766
0.00010939
0.000126653
6.97126e-05
8.10409e-05
4.37158e-05
5.10026e-05
2.79663e-05
3.24238e-05
1.76643e-05
2.05921e-05
1.09084e-05
1.27687e-05
6.85755e-06
8.00791e-06
4.22608e-06
4.93102e-06
2.6246e-06
3.07382e-06
1.60152e-06
1.87531e-06
9.6914e-07
1.13953e-06
5.79202e-07
6.84275e-07
3.53332e-07
4.15213e-07
2.11503e-07
2.49151e-07
1.24584e-07
1.47496e-07
7.47816e-08
8.82404e-08
4.43687e-08
5.24304e-08
2.62363e-08
3.10118e-08
1.52906e-08
1.81099e-08
8.97218e-09
1.06477e-08
5.22553e-09
6.19357e-09
3.03255e-09
3.60485e-09
1.73457e-09
2.06669e-09
1.01622e-09
1.2074e-09
5.81642e-10
6.89365e-10
3.35205e-10
3.99709e-10
1.90384e-10
2.26408e-10
1.07223e-10
1.28066e-10
5.99307e-11
7.17964e-11
3.40017e-11
4.05996e-11
1.92531e-11
2.29413e-11
1.05883e-11
1.27051e-11
5.96226e-12
7.1341e-12
3.2698e-12
3.92235e-12
1.84294e-12
2.20627e-12
1.01462e-12
1.2122e-12
5.65619e-13
6.77836e-13
3.09356e-13
3.70445e-13
1.65399e-13
1.988e-13
8.99723e-14
1.0814e-13
4.90379e-14
5.89542e-14
2.64292e-14
3.17513e-14
1.40092e-14
1.69552e-14
7.60312e-15
9.15528e-15
4.2283e-15
5.08159e-15
2.39919e-15
2.86613e-15
3.08669e-05
-1.10284e-05
4.53517e-16
-0.00459322
7.55026e-10
7.25239e-10
-0.000867258
7.79716e-05
6.47619e-16
-1.44027e-54
0.572277
-5.14859e-54
-5.60821e-49
0.872927
1.07352e-15
3.5248e-09
1.59169e-09
6.84081e-07
-6.42453e-08
-6.84948e-50
1.52781e-06
-8.12095e-12
5.60229e-16
-4.44767e-12
-3.40543e-13
1.18954e-14
4.75905e-15
3.61547e-16
1.44279e-18
-2.38772e-18
-2.54807e-19
-1.14797e-20
3.55598e-22
8.25556e-23
6.34e-24
2.42061e-25
-5.88367e-27
-1.45594e-27
-1.0671e-28
-4.44015e-30
-3.91852e-32
1.05332e-32
1.06412e-33
5.41254e-35
1.48414e-36
-2.4471e-38
-5.29779e-39
-3.56716e-40
-1.50173e-41
-3.4727e-43
6.13438e-45
1.19782e-45
7.36294e-47
3.20576e-48
8.33892e-50
4.614e-53
-1.3743e-52
-1.32136e-11
5.53734e-54
6.57838e-16
0.0179628
-0.00337096
-9.37364e-50
-8.50456e-50
-1.9076e-54
0.921152
-4.40445e-45
-2.76525e-45
3.9746e-46
6.36709e-44
5.63264e-46
-4.31331e-43
-8.44838e-42
1.19512e-40
-3.76123e-40
-1.15595e-38
-1.52678e-37
3.43442e-36
-2.48225e-35
-1.5939e-34
5.3747e-33
-4.93394e-32
-6.91607e-31
-3.58499e-30
-8.45945e-29
1.72277e-27
5.31481e-27
-6.82708e-26
-1.14455e-25
-8.59817e-25
-3.43248e-24
-5.26016e-23
1.47685e-22
-3.16877e-22
-1.32633e-21
3.45421e-21
-1.33669e-20
-1.59662e-20
4.69578e-19
1.6703e-18
5.20763e-18
1.34835e-17
3.39946e-17
7.21353e-17
1.37206e-16
2.27904e-16
3.34417e-16
4.49338e-16
5.52305e-16
0.000194849
-5.48507e-43
1.44278e-15
0.0738133
0.000138627
6.90732e-16
6.16083e-16
4.75456e-16
3.35203e-16
2.13863e-16
1.21049e-16
6.017e-17
2.57355e-17
9.79309e-18
3.4269e-18
1.0503e-18
1.50598e-19
-4.97149e-20
5.04161e-21
-2.88413e-21
2.44497e-22
-3.63427e-23
2.73771e-23
2.08122e-23
2.54816e-24
1.38838e-25
1.37979e-25
1.47876e-26
-4.34526e-27
-4.61358e-28
5.1097e-29
-5.05497e-31
4.28131e-31
1.65174e-33
-2.00083e-33
1.24711e-34
-2.27275e-36
-1.35701e-52
-7.63662e-52
5.00241e-50
2.38451e-48
6.18889e-47
1.14885e-45
1.03773e-44
-1.78358e-43
-1.10559e-41
-2.96559e-40
-5.13959e-39
-4.12534e-38
8.16889e-37
4.09094e-35
9.23094e-34
1.14629e-32
2.5804e-32
-3.10501e-30
-8.86778e-29
-1.42609e-27
-1.02874e-26
1.35755e-25
5.22847e-24
8.13203e-23
5.73161e-22
-6.62576e-21
-2.19276e-19
-2.63775e-18
-7.28592e-18
2.6448e-16
4.71645e-15
-1.38702e-07
1.96836e-09
6.70212e-16
5.45049e-16
4.03622e-16
2.74288e-16
1.64091e-16
8.60894e-17
4.02477e-17
1.58252e-17
6.11036e-18
1.95157e-18
5.32752e-19
-2.54997e-20
-1.50564e-20
3.81395e-21
-1.52066e-21
-3.76412e-22
1.79391e-22
-6.16512e-23
-4.127e-24
-1.0796e-24
-1.24099e-25
-8.20106e-26
5.52803e-27
2.07824e-27
-8.73807e-29
-4.94645e-30
-7.55957e-31
-6.68124e-32
6.04446e-33
-1.7647e-34
-3.50352e-35
-0.00678246
-0.00317575
-0.00995485
4.22201e-36
-1.87157e-37
-1.62525e-38
-4.00433e-40
1.63531e-40
-1.05451e-41
-3.99894e-52
3.18202e-51
3.91804e-49
1.33643e-47
2.77479e-46
4.06512e-45
4.97905e-45
-1.65405e-42
-5.93023e-41
-1.3321e-39
-1.71295e-38
-1.00768e-38
6.75246e-36
2.09129e-34
3.46385e-33
2.99494e-32
-3.32553e-31
-1.71598e-29
-3.80827e-28
-4.44137e-27
-3.69868e-27
1.0382e-24
2.19187e-23
2.55752e-22
2.47473e-22
-4.63375e-20
-8.38093e-19
-6.19895e-18
2.70422e-17
1.23226e-15
1.32305e-14
2.15181e-15
-1.18742e-12
-1.15259e-53
0.64697
1.93107e-54
5.22025e-07
-6.47887e-08
-9.18168e-54
2.43012e-14
-2.19768e-13
-4.36313e-12
-3.54869e-53
9.57519e-53
-4.66887e-38
7.55749e-38
-2.80594e-39
-2.15545e-40
-2.8195e-45
2.42911e-41
1.83806e-42
0.000456232
-5.80811e-08
9.59751e-16
2.95466e-37
1.00293
1.00829
1.01212
1.00308
1.00797
1.00023
1.00186
0.999637
0.999694
0.999819
0.999586
0.999993
0.999896
1.00004
1.00004
1.00003
1.00005
1.00001
1.00002
1.00001
1.00002
1.00001
1.00002
1.00001
1.00002
1.00001
1.00002
1.00001
1.00002
1.00001
1.00002
1.00001
1.00002
1.00001
1.00002
1.00001
1.00002
1.00001
1.00002
1.00001
1.00002
1.00001
1.00002
1.00001
1.00002
1.00001
1.00002
1.00001
1.00002
1.00001
1.00002
1.00001
1.00002
1.00001
1.00002
1.00001
1.00002
1.00001
1.00002
1.00001
1.00002
1.00001
1.00002
1.00001
1.00002
1.00001
1.00002
1.00001
1.00002
1.00001
1.00002
1.00001
1.00002
1.00001
1.00002
1.00001
1.00002
1.00001
1.00002
1.00001
1.00002
1.00001
1.00002
1.00001
1.00002
1.00001
1.00002
1.00001
1.00002
1.00001
1.00002
1.00001
1.00002
1.00001
1.00002
1.00001
1.00002
1.00001
1.00002
1.00001
1.00002
1.00001
1.00002
1.00001
1.00002
1.00001
1.00002
1.00001
1.00002
1.00001
1.00002
1.00001
1.00002
1.00001
1.00002
1.00001
1.00002
1.00001
1.00002
1.00001
1.00002
1.00001
1.00002
1.00001
1.00002
1.00001
1.00002
1.00001
1.00002
1.00001
1.00002
1.00001
1.00002
1.00001
1.00002
1.00001
1.00002
1.00001
1.00002
1.00001
1.00002
1.00001
1.00002
1.00001
1.00002
1.00001
1.00002
1.00001
1.00002
1.00001
1.00002
1.00001
1.00002
1.00001
1.00002
1.00001
1.00002
1.00001
1.00002
1.00001
1.00002
1.00001
1.00002
1.00001
1.00002
1.00001
1.00002
1.00001
1.00002
1.00001
1.00002
1.00001
1.00002
1.00001
1.00002
1.00001
1.00002
1.00001
1.00002
1.00001
1.00002
1.00001
1.00002
1.00001
7.6448e-05
1.00002
-5.50133e-54
0.113514
1.88682e-53
8.60582e-16
0.228572
-5.08556e-09
2.44504e-10
6.85136e-07
-3.43138e-07
-7.04697e-49
6.5095e-10
6.84317e-10
1.22947e-06
1.68941e-06
1.67179e-06
4.787e-53
-3.17951e-12
-9.74359e-13
1.31455e-07
5.67055e-07
-6.28815e-09
-7.71435e-15
2.23289e-15
2.82229e-16
1.44278e-17
-4.67097e-19
-1.34118e-19
-1.14751e-20
-3.44175e-22
2.19532e-23
3.59479e-24
2.54988e-25
8.19112e-27
-2.18033e-28
-4.61701e-29
-3.41179e-30
-1.30871e-31
-1.1964e-33
3.46707e-34
3.10923e-35
1.52481e-36
4.2545e-38
-4.52427e-40
-1.32902e-40
-9.09039e-42
-4.02272e-43
-9.57037e-45
8.07334e-47
2.599e-47
1.79982e-48
7.2815e-50
4.62248e-12
-2.47973e-12
8.93581e-16
-0.00734109
5.19274e-51
3.82406e-41
7.66699e-16
6.64356e-46
8.00441e-44
-0.00012618
1.97935e-51
2.36368e-42
-1.23666e-41
-1.51764e-41
3.87617e-41
-4.4962e-40
-4.25337e-39
1.17222e-37
-2.79112e-37
-3.49418e-37
2.52536e-37
3.02285e-52
1.91826e-52
-3.17824e-36
2.02072e-34
-2.58824e-33
-3.03461e-34
5.97085e-31
-7.11532e-31
7.10557e-29
-5.38283e-28
-6.48143e-27
1.64203e-26
2.30259e-25
2.31055e-25
4.137e-24
3.04576e-23
7.617e-23
-1.39131e-22
3.73475e-22
-3.72554e-21
4.66128e-21
-7.35622e-20
3.08663e-19
1.69405e-18
5.49842e-18
1.53699e-17
3.97895e-17
9.17374e-17
1.82235e-16
3.1904e-16
4.90684e-16
6.89446e-16
8.7697e-16
-1.57421e-49
-8.95333e-49
-7.50521e-43
-9.71943e-43
2.8441e-42
0.999978
0.000207829
0.999989
0.999967
1.00002
1.00001
1.00012
1.0001
1.00007
1.00018
0.999607
0.999795
0.999336
0.999205
1.0004
0.999858
1.00124
1.00078
1.00244
1.00222
1.00312
1.00395
0.999876
1.00334
0.989259
0.996463
0.968194
0.9805
0.93568
0.953106
0.889513
0.912463
0.83112
0.857816
0.760891
0.792604
0.68487
0.716798
0.605098
0.638327
0.524145
0.55742
0.446312
0.477129
0.375408
0.403532
0.308412
0.334257
0.250108
0.271541
0.198662
0.217308
0.155267
0.170868
0.120014
0.132596
0.0918146
0.101909
0.0688861
0.0767096
0.0515197
0.057506
0.0378106
0.0424745
0.0272644
0.0307481
0.0198411
0.0223087
0.0139938
0.0158914
0.00987841
0.0111795
0.00690196
0.00784962
0.00479656
0.00548119
0.00327886
0.00375632
0.00223663
0.0025674
0.0014868
0.00171624
0.0010023
0.00115232
0.000662889
0.000767728
0.00042978
0.000498845
0.000284989
0.000328223
0.000185266
0.000215197
0.000118556
0.000138059
7.62565e-05
8.90678e-05
4.80706e-05
5.64696e-05
3.05418e-05
3.55585e-05
1.93898e-05
2.2674e-05
1.20308e-05
1.41638e-05
7.51923e-06
8.79829e-06
4.62693e-06
5.4388e-06
2.86886e-06
3.3818e-06
1.74587e-06
2.06019e-06
1.07078e-06
1.26399e-06
6.40331e-07
7.60862e-07
3.90165e-07
4.60181e-07
2.34683e-07
2.78854e-07
1.38074e-07
1.64107e-07
8.37444e-08
9.86383e-08
4.95768e-08
5.89434e-08
2.88592e-08
3.43534e-08
1.69443e-08
2.01805e-08
1.00069e-08
1.19477e-08
5.80019e-09
6.92383e-09
3.40085e-09
4.0602e-09
1.94538e-09
2.333e-09
1.13758e-09
1.3535e-09
6.48159e-10
7.7511e-10
3.70375e-10
4.43666e-10
2.10761e-10
2.52545e-10
1.20455e-10
1.44576e-10
6.73273e-11
8.08247e-11
3.85985e-11
4.62903e-11
2.15584e-11
2.60054e-11
1.18526e-11
1.42914e-11
6.78648e-12
8.13017e-12
3.71509e-12
4.48694e-12
2.06628e-12
2.47917e-12
1.13398e-12
1.36577e-12
6.28616e-13
7.59386e-13
3.40909e-13
4.11169e-13
1.8704e-13
2.26477e-13
9.95687e-14
1.20814e-13
5.51826e-14
6.65962e-14
2.98809e-14
3.63465e-14
1.60227e-14
1.94438e-14
8.82124e-15
1.06437e-14
4.98589e-15
6.06655e-15
2.78906e-15
3.4146e-15
0.000126212
0.000291522
0.000347191
0.000322713
0.756645
5.41079e-36
-9.07644e-37
-1.38112e-49
-2.19463e-49
1.10078e-09
1.47464e-09
9.33694e-16
1.15569e-15
1.11938e-15
9.38231e-16
1.1815e-15
-1.15309e-50
-1.72174e-49
-6.91784e-45
1.07986e-43
2.81991e-52
3.22338e-52
6.69783e-51
-6.81964e-14
-4.39729e-14
-0.00272247
-0.00153341
-1.15982e-50
1.31932e-51
1.39036e-53
4.59269e-47
-5.09136e-48
-3.24237e-48
1.04614e-15
2.11707e-10
5.82148e-11
-3.17258e-28
-1.29713e-28
-1.76135e-05
1.68015e-15
4.09997e-10
3.35144e-24
1.02089e-24
-2.41748e-08
-1.93508e-08
-4.85434e-12
-2.29543e-12
-1.57464e-22