/*--------------------------------*- C++ -*----------------------------------*\
  =========                 |
  \\      /  F ield         | OpenFOAM: The Open Source CFD Toolbox
   \\    /   O peration     | Website:  https://openfoam.org
    \\  /    A nd           | Version:  7
     \\/     M anipulation  |
\*---------------------------------------------------------------------------*/
FoamFile
{
    version     2.0;
    format      ascii;
    class       volScalarField;
    location    "0.8";
    object      T;
}
// * * * * * * * * * * * * * * * * * * * * * * * * * * * * * * * * * * * * * //

dimensions      [0 0 0 1 0 0 0];

internalField   nonuniform List<scalar> 
23686
(
0.509941
0.910643
0.997281
0.975489
1.00718
1.01727
1.00286
1.00909
1.00026
1.00127
0.999751
0.999405
0.999891
0.999662
0.999995
0.99997
1.00001
1.00003
1.00001
1.00002
1
1
0.999999
0.999998
1
0.999999
1
1
1
1
1
1
1
1
1
1
1
1
1
1
1
1
1
1
1
1
1
1
1
1
1
1
1
1
1
1
1
1
1
1
1
1
1
1
1
1
1
1
1
1
1
1
1
1
1
1
1
1
1
1
1
1
1
1
1
1
1
1
1
1
1
1
1
1
1
1
1
1
1
1
1
1
1
1
1
1
1
1
1
1
1
1
1
1
1
1
1
1
1
1
1
1
1
1
1
1
1
1
1
1
1
1
1
1
1
1
1
1
1
1
1
1
1
1
1
1
1
1
1
1
1
1
1
1
1
1
1
1
1
1
1
1
1
1
1
1
1
1
1
1
1
1
1
1
1
1
1
1
1
1
1
1
1
1
1
1
1
1
1
1
1
1
1
1
1
1
1
1
1
0.11164
-0.00310636
-0.000317299
5.52315e-05
-1.03085e-05
1.75243e-07
1.75516e-07
-3.22223e-08
2.01359e-09
3.75098e-10
-1.68621e-10
1.44734e-11
1.36953e-12
-8.03056e-13
9.05057e-14
5.8032e-15
-3.42335e-15
4.66571e-16
-1.89336e-17
-1.49676e-17
3.79034e-18
-1.50791e-19
-6.51086e-20
2.17241e-20
-2.36936e-21
-2.86007e-22
1.4972e-22
-3.35229e-23
-1.84141e-24
2.42401e-24
-4.15134e-25
-2.41807e-25
1.24155e-26
1.20524e-26
1.06141e-27
-4.08074e-28
-9.14007e-29
6.08786e-30
2.81507e-30
2.9995e-31
-2.09277e-32
-9.74386e-33
-7.89566e-34
7.14141e-35
2.65552e-35
2.20469e-36
-7.12227e-38
-2.93447e-38
-3.02407e-39
1.67229e-55
-4.81112e-40
-5.09772e-39
4.08966e-37
-3.18416e-35
6.52205e-35
-1.36905e-34
-2.96014e-32
2.31512e-30
4.74111e-29
6.61332e-28
5.87742e-27
-8.89718e-27
-2.34623e-25
-3.1796e-24
1.06782e-24
2.26149e-22
-6.45035e-22
-2.99542e-20
-1.02495e-19
1.60375e-18
-1.06962e-17
-1.67764e-16
-9.22064e-16
-8.93311e-16
2.21923e-14
-7.76963e-14
-5.25728e-13
1.64171e-12
1.64831e-12
-1.30151e-11
-2.39054e-10
7.8536e-10
2.20228e-10
-2.97468e-09
2.82904e-09
-1.61759e-09
1.04193e-08
6.71285e-08
-3.29343e-07
-4.48223e-07
1.13674e-06
6.75061e-06
7.74053e-06
-4.97372e-05
-0.000186599
-0.00016631
0.000749123
0.00401515
0.00847934
0.0149483
1
1
1
1
1
1
1
1
1
1
1
1
1
1
1
1
1
1
1
1
1
1
1
1
1
1
1
1
1
1
1
1
1
1
1
1
1
1
1
1
1
1
1
1
1
1
1
1
1
1
1
1
1
1
1
1
1
1
1
1
1
1
1
1
1
1
1
1
1
1
1
1
1
1
1
1
1
1
1
1
1
1
1
1
1
1
1
1
0.999999
1
1
1
0.999997
0.999998
0.999993
0.999994
0.999994
0.999994
1.00001
1
1.00003
1.00002
1.00005
1.00004
1.00007
1.00007
1.00008
1.00008
1.00004
1.00005
0.999846
0.999893
0.999407
0.999543
0.99863
0.998891
0.997353
0.997793
0.995342
0.996037
0.992273
0.993241
0.987576
0.988929
0.980931
0.982914
0.972004
0.974693
0.960756
0.964068
0.946794
0.951016
0.929536
0.934895
0.908863
0.915078
0.885262
0.892197
0.857525
0.86567
0.826503
0.835724
0.791741
0.802021
0.754871
0.765571
0.715508
0.727146
0.672842
0.685398
0.629862
0.642345
0.585755
0.598635
0.540548
0.553653
0.496304
0.508954
0.452994
0.465572
0.409096
0.421699
0.368338
0.379829
0.329499
0.340526
0.292137
0.302743
0.258224
0.268031
0.225735
0.235072
0.196901
0.205148
0.170286
0.177882
0.145884
0.152757
0.124706
0.130569
0.105917
0.111127
0.0887019
0.0933056
0.0737889
0.0775725
0.0608749
0.0641355
0.0494788
0.052464
0.039316
0.0419696
0.0310936
0.033155
0.02293
0.0164073
0.024392
-3.51392e-40
0.0114743
0.0139069
-0.00200416
0.000101508
-3.29739e-06
-3.45346e-06
5.32192e-07
-1.86721e-08
-8.67423e-09
1.98581e-09
-2.29594e-10
-3.01286e-11
1.01881e-11
-1.26524e-12
-1.00731e-13
5.222e-14
-6.12919e-15
-2.59123e-16
1.91549e-16
-4.45371e-17
2.06618e-18
1.21647e-18
-2.55567e-19
2.16611e-20
4.57095e-21
-1.80911e-21
2.33182e-22
1.24852e-23
-2.00134e-23
3.88667e-24
4.26869e-25
-4.65614e-25
-5.91488e-26
2.10114e-26
4.66696e-27
-2.14241e-28
-2.56827e-28
-1.35133e-29
5.76738e-30
1.07239e-30
3.65586e-32
-1.90178e-32
-3.46785e-33
-4.31882e-35
5.43244e-35
9.22587e-36
2.6243e-37
-6.48178e-38
-1.08925e-38
-0.00133342
-7.0318e-40
0.012845
-7.00391e-39
9.15025e-38
3.4269e-36
3.18626e-35
1.68151e-34
4.88713e-33
-2.04036e-31
-1.23031e-29
-1.65757e-28
-2.62983e-27
-3.57963e-27
3.45089e-26
1.04717e-24
6.7885e-24
-6.59513e-23
-3.96057e-22
7.75345e-21
7.90711e-20
-2.62343e-19
-1.86303e-18
6.05335e-17
3.81006e-16
1.86929e-15
-7.247e-15
-2.04158e-14
3.45198e-13
-1.10301e-13
-2.35091e-12
-2.35611e-12
1.06139e-10
8.22376e-11
-1.57924e-09
2.94786e-09
1.39655e-09
-1.72214e-08
3.19228e-08
3.56523e-09
-1.27278e-09
-3.63998e-07
5.25795e-08
2.21347e-06
1.07333e-05
-5.76559e-06
-0.000111518
-0.000222729
2.98512e-05
0.00222791
0.00677254
0.000148593
0.0642368
-2.77272e-05
0.453368
0.000140418
1.57756e-06
-1.07378e-05
1.40764e-06
-1.25929e-08
-2.71604e-08
5.36429e-09
-5.3326e-10
-1.0663e-10
2.86304e-11
-3.09299e-12
-3.83717e-13
1.51935e-13
-1.55507e-14
-1.30284e-15
5.45873e-16
-1.17173e-16
3.48255e-18
3.75166e-18
-6.86726e-19
4.86586e-20
1.4628e-20
-4.97946e-21
5.8768e-22
3.42383e-23
-5.35938e-23
1.18786e-23
1.08434e-24
-1.51104e-24
-1.96272e-25
7.04752e-26
1.61973e-26
-7.89268e-28
-8.43645e-28
-5.93366e-29
1.82289e-29
3.82446e-30
1.66648e-31
-6.05745e-32
-1.24923e-32
-2.88411e-34
1.72144e-34
3.27737e-35
1.29499e-36
-2.07609e-37
-3.7015e-38
-2.69424e-39
1.03123e-37
3.2721e-36
1.86941e-35
7.08825e-35
1.43223e-33
-1.62278e-31
-8.5473e-30
-1.17965e-28
-1.92719e-27
4.17542e-29
4.54209e-26
8.57066e-25
3.09208e-24
-7.09508e-23
-2.93618e-22
6.37595e-21
5.45635e-20
-2.0832e-19
-7.76272e-19
4.93035e-17
2.55974e-16
1.19643e-15
-6.31719e-15
-1.023e-14
2.9602e-13
-4.9191e-14
-1.74235e-12
-4.45558e-12
7.44289e-11
7.22045e-11
-1.18586e-09
2.33552e-09
1.07634e-09
-1.4964e-08
2.84818e-08
1.12246e-08
-1.86501e-08
-4.01578e-07
7.55922e-08
2.7354e-06
1.10837e-05
-8.93468e-06
-0.000122961
-0.000237248
9.39258e-05
0.00254326
0.00736113
-6.88123e-39
-1.13217e-07
5.32847e-07
-8.58979e-08
3.92802e-09
1.22829e-09
-4.57859e-10
3.2832e-11
4.88649e-12
-2.1794e-12
2.26184e-13
2.2301e-14
-9.2958e-15
1.09129e-15
-2.82718e-17
-4.488e-17
9.8441e-18
-2.32095e-19
-2.01622e-19
5.61451e-20
-5.02944e-21
-9.12717e-22
4.01911e-22
-8.31322e-23
-3.74526e-24
7.27918e-24
-1.34593e-24
-7.82936e-25
4.17492e-26
4.25686e-26
3.7104e-27
-1.37895e-27
-3.25101e-28
1.28091e-29
9.90194e-30
1.14072e-30
-5.52725e-32
-3.14122e-32
-3.12473e-33
2.11487e-34
8.42228e-35
8.73813e-36
-1.58104e-37
-1.01414e-37
-1.1215e-38
1.99429e-37
-2.79224e-35
1.01436e-34
3.06093e-34
-1.90126e-32
1.80479e-30
3.40815e-29
4.8522e-28
4.11519e-27
-1.52872e-26
-2.25054e-25
-2.10458e-24
8.63312e-24
2.05252e-22
-6.72436e-22
-2.38935e-20
-6.41455e-20
1.11895e-18
-1.03224e-17
-1.30416e-16
-6.21072e-16
-2.44464e-16
1.70433e-14
-7.46682e-14
-4.57636e-13
1.24216e-12
1.70523e-12
-2.67382e-12
-1.82135e-10
6.03812e-10
1.45618e-10
-2.02403e-09
1.4061e-09
-1.38369e-09
1.40511e-08
6.01587e-08
-3.28154e-07
-4.4227e-07
1.23596e-06
7.23083e-06
7.55942e-06
-5.55254e-05
-0.000201623
-0.000169699
0.000923737
0.00461695
0.00934023
-0.00528114
-0.00556021
2.68647e-39
0.594883
-0.00160947
0.942444
1.00339
0.979133
1.00791
1.01325
1.00265
1.00761
0.999944
1.00096
0.999656
0.999356
0.999885
0.999649
1
0.999959
1.00002
1.00003
1.00001
1.00002
1
1
0.999999
0.999998
1
0.999999
1
1
1
1
1
1
1
1
1
1
1
1
1
1
1
1
1
1
1
1
1
1
1
1
1
1
1
1
1
1
1
1
1
1
1
1
1
1
1
1
1
1
1
1
1
1
1
1
1
1
1
1
1
1
1
1
1
1
1
1
1
1
1
1
1
1
1
1
1
1
1
1
1
1
1
1
1
1
1
1
1
1
1
1
1
1
1
1
1
1
1
1
1
1
1
1
1
1
1
1
1
1
1
1
1
1
1
1
1
1
1
1
1
1
1
1
1
1
1
1
1
1
1
1
1
1
1
1
1
1
1
1
1
1
1
1
1
1
1
1
1
1
1
1
1
1
1
1
1
1
1
1
1
1
1
1
1
1
1
1
1
1
1
1
1
1
1
1
1
2.30952e-38
0.00261077
0.000236229
0.235597
-1.05639e-05
-3.43467e-06
7.57138e-07
-5.52954e-08
-7.56084e-09
3.24048e-09
-3.78286e-10
-2.40992e-11
1.5687e-11
-2.16101e-12
-8.04896e-14
7.11487e-14
-1.0666e-14
4.1551e-16
2.82786e-16
-7.51657e-17
4.61751e-18
1.39986e-18
-4.2311e-19
4.82915e-20
4.05772e-21
-2.63619e-21
5.48736e-22
2.72965e-24
-3.54976e-23
1.03718e-23
2.06155e-24
-8.17757e-25
-1.82024e-25
2.6603e-26
1.09388e-26
6.70166e-28
-3.86965e-28
-6.21523e-29
1.65956e-30
1.55111e-30
1.76567e-31
-8.83948e-33
-4.57051e-33
-4.65259e-34
1.65883e-35
9.50136e-36
8.26161e-37
-1.85832e-38
-1.283e-38
3.38544e-37
-0.00445074
-0.00527208
-0.00421271
-9.61446e-40
0.0161001
0.0216488
-1.31586e-05
-1.12008e-05
0.517419
-3.48855e-35
1.47201e-34
4.25303e-34
-3.1797e-32
1.66732e-30
3.77046e-29
4.97875e-28
6.03748e-27
-1.75447e-26
-2.40496e-25
-2.61405e-24
4.27984e-24
2.78851e-22
-2.03813e-22
-3.04994e-20
-1.26722e-19
1.41191e-18
-8.4586e-18
-1.74355e-16
-8.39926e-16
-1.64648e-15
2.36924e-14
-6.39891e-14
-7.68432e-13
1.49662e-12
2.94577e-12
4.62212e-12
-2.7808e-10
6.31838e-10
1.20211e-09
-3.88768e-09
-4.7179e-10
9.0428e-09
7.43891e-09
7.75811e-08
-5.02531e-07
-4.45168e-07
2.05916e-06
1.04946e-05
4.43327e-06
-9.12949e-05
-0.000262835
-0.000123075
0.00165883
0.00670324
0.0111722
0.0151541
0.0528654
0.185682
0.025489
7.61732e-05
0.000473589
6.62957e-05
7.89362e-06
1
1
1
1
1
1
1
1
1
1
1
1
1
1
1
1
1
1
1
1
1
1
1
1
1
1
1
1
1
1
1
1
1
1
1
1
1
1
1
1
1
1
1
1
1
1
1
1
1
1
1
1
1
1
1
1
1
1
1
1
1
1
1
1
1
1
1
1
1
1
1
1
1
1
1
1
1
1
1
1
1
1
1
1
0.999999
1
1
1
1
1
0.999997
0.999998
0.999992
0.999993
0.999996
0.999993
1.00001
1
1.00003
1.00002
1.00005
1.00004
1.00007
1.00007
1.00008
1.00009
1.00002
1.00007
0.999799
0.999931
0.99937
0.999622
0.998625
0.999075
0.997379
0.998098
0.995393
0.9965
0.992207
0.993854
0.987249
0.989617
0.980574
0.983678
0.971814
0.97605
0.9604
0.965712
0.946457
0.952789
0.929652
0.937251
0.909043
0.918464
0.884646
0.895054
0.85724
0.869194
0.826407
0.839586
0.791954
0.806684
0.754487
0.769971
0.715586
0.73159
0.673704
0.691225
0.630095
0.647705
0.586007
0.603666
0.541252
0.559262
0.49647
0.514185
0.453226
0.46995
0.410242
0.42726
0.368619
0.384739
0.32939
0.344144
0.29294
0.30701
0.258929
0.27155
0.227063
0.239263
0.197708
0.208654
0.171117
0.181121
0.146731
0.155831
0.125045
0.13296
0.106025
0.112748
0.0888978
0.0950689
0.0731543
0.0784314
0.0599548
0.0641933
0.0490663
0.0524949
0.0396827
0.0430801
0.759785
-8.82538e-39
-0.000422185
0.806072
1.6899e-38
0.000213928
1.63111e-37
-6.07954e-39
6.51626e-07
1.63027e-07
-4.58153e-08
4.84777e-09
4.09135e-10
-2.17895e-10
2.77077e-11
1.32195e-12
-1.08696e-12
1.45736e-13
3.00572e-15
-4.18049e-15
9.06069e-16
-5.13654e-17
-2.19042e-17
5.64617e-18
-4.50647e-19
-8.2043e-20
3.43283e-20
-4.73658e-21
-1.07499e-22
2.93825e-22
-7.07387e-23
2.68416e-25
6.86242e-24
-3.55731e-25
-5.1773e-25
-1.3952e-26
2.20575e-26
3.85161e-27
-3.4933e-28
-1.94517e-28
-1.06345e-29
2.62536e-30
6.20867e-31
2.41374e-32
-9.42575e-33
-1.64152e-33
-7.31244e-35
1.96158e-35
3.28376e-36
1.20162e-37
-2.79549e-38
4.20329e-37
-2.0881e-07
1.62247e-36
4.5053e-35
8.20042e-35
-1.63446e-33
-6.99832e-32
-7.81351e-30
-1.25008e-28
-2.15854e-27
-2.89788e-27
4.64834e-26
1.03142e-24
5.18814e-24
-7.42108e-23
-4.99762e-22
6.47118e-21
6.99984e-20
-1.17323e-19
-2.32038e-18
5.62227e-17
3.32422e-16
1.84188e-15
-6.60974e-15
-2.81301e-14
3.7634e-13
2.87172e-13
-2.79924e-12
-6.43285e-12
8.70309e-11
2.5921e-10
-1.86377e-09
2.75165e-09
2.9704e-09
-2.15233e-08
4.06619e-08
1.96488e-08
-9.73854e-08
-4.65982e-07
4.45186e-07
4.30236e-06
1.3287e-05
-2.33819e-05
-0.000174691
-0.00027255
0.000343574
0.00394382
0.0103689
1.61869e-06
-3.69777e-12
1.45659e-37
3.80224e-11
0.0310757
-2.75324e-05
-1.26064e-10
0.00681473
0.0015281
-0.000173818
-0.00027063
-8.49526e-05
7.58737e-06
1.04093e-05
1.81713e-06
-5.2778e-07
-4.7936e-07
8.172e-08
1.3662e-08
3.94084e-09
2.7537e-10
-3.06861e-09
6.8303e-10
6.84183e-10
-2.48027e-10
4.01727e-12
2.67765e-12
1.49117e-12
-7.04043e-13
-9.20264e-14
2.25518e-14
-5.00374e-16
-7.60699e-16
-1.69638e-16
-1.25672e-17
1.41711e-18
-8.9241e-20
-3.0613e-20
-6.85217e-22
3.01465e-22
1.28973e-23
-2.48995e-24
-3.06776e-25
-2.41162e-26
5.26176e-27
5.05948e-28
3.69911e-29
1.87508e-30
-2.85707e-32
7.38409e-34
-3.97725e-38
3.52676e-39
2.912e-36
2.60505e-35
2.77603e-36
-1.51592e-33
-1.27754e-32
-1.08373e-32
5.73387e-31
4.01491e-30
-4.48982e-31
-2.00942e-28
-8.81468e-28
2.71391e-27
3.08085e-26
4.77002e-26
-5.58088e-25
-1.83814e-24
6.47037e-24
2.1953e-23
-8.9708e-23
9.14623e-23
9.44494e-22
-6.51144e-21
2.0277e-20
5.87636e-20
-9.44516e-19
4.64716e-18
2.1533e-20
-1.5374e-16
8.68768e-16
-6.22964e-16
-1.79543e-14
1.83418e-13
-5.72657e-13
0.0107832
0.00382645
0.000250913
-0.000302604
-0.000172386
-1.78094e-05
1.45278e-05
4.14323e-06
2.26007e-07
-5.1442e-07
-6.37327e-08
2.14049e-08
3.87846e-08
-2.08247e-08
2.31133e-09
2.87373e-09
-1.6809e-09
1.69778e-10
8.81141e-11
-7.37027e-12
-2.34193e-12
1.22354e-13
4.05633e-13
-1.77854e-14
-8.16474e-15
1.55437e-15
3.13721e-16
6.2802e-17
-1.24393e-18
-2.33327e-19
6.52806e-20
7.90322e-21
-4.54006e-22
-9.98834e-23
3.61237e-24
1.12978e-24
6.13447e-26
8.24543e-28
-2.22644e-27
-1.26461e-28
-8.84848e-30
3.35674e-36
-6.455e-38
5.34639e-37
9.92508e-36
4.519e-35
-3.30628e-34
-4.93659e-33
-2.19391e-32
1.13788e-31
1.80311e-30
5.71587e-30
-4.53722e-29
-5.30902e-28
-4.81778e-28
1.14439e-26
5.58788e-26
-9.38337e-26
-1.31532e-24
-1.36264e-25
1.74607e-23
-8.93945e-24
-1.32619e-22
7.13034e-22
-1.07678e-21
-6.96005e-21
8.10935e-20
-3.00247e-19
-3.17501e-19
1.18944e-17
-6.83028e-17
8.24116e-18
1.81326e-15
-1.13039e-14
3.26884e-14
2.2785e-13
-2.81782e-12
8.26066e-12
4.07321e-11
-5.316e-10
1.9919e-09
6.03971e-09
-1.04476e-07
5.89488e-07
7.83204e-09
-3.02927e-08
-3.21944e-08
-5.64741e-10
1.78373e-34
-3.88692e-35
2.77229e-35
9.04061e-35
-7.53448e-34
-1.49745e-31
0.000277452
0.982244
1.00991
1.00371
1.00638
1.01397
1.00125
1.00491
0.999712
1.00021
0.999713
0.999455
0.999923
0.999743
1.00001
0.999978
1.00002
1.00003
1
1.00001
0.999999
1
0.999999
0.999998
1
0.999999
1
1
1
1
1
1
1
1
1
1
1
1
1
1
1
1
1
1
1
1
1
1
1
1
1
1
1
1
1
1
1
1
1
1
1
1
1
1
1
1
1
1
1
1
1
1
1
1
1
1
1
1
1
1
1
1
1
1
1
1
1
1
1
1
1
1
1
1
1
1
1
1
1
1
1
1
1
1
1
1
1
1
1
1
1
1
1
1
1
1
1
1
1
1
1
1
1
1
1
1
1
1
1
1
1
1
1
1
1
1
1
1
1
1
1
1
1
1
1
1
1
1
1
1
1
1
1
1
1
1
1
1
1
1
1
1
1
1
1
1
1
1
1
1
1
1
1
1
1
1
1
1
1
1
1
1
1
1
1
1
1
1
1
1
1
-2.77541e-32
-1.11632e-05
3.27832e-13
6.36546e-35
0.0346897
1.42477e-11
-3.23756e-09
2.78352e-09
1.07784e-06
6.55844e-08
-4.30315e-08
-2.53936e-08
5.86964e-09
8.24713e-09
7.47404e-09
0.00945766
0.0254872
-1.9338e-10
-8.49958e-11
2.07811e-37
3.38049e-11
3.91351e-11
0.0144989
-2.28107e-12
4.52057e-14
5.51276e-14
-1.3045e-14
9.18736e-16
2.34154e-16
-7.70587e-17
7.9602e-18
8.04502e-19
-4.51032e-19
6.33933e-20
-6.18523e-22
-2.65269e-21
7.58715e-22
-5.20043e-23
-5.0203e-23
1.52488e-23
3.83387e-24
-8.95136e-25
-3.09032e-25
6.9699e-27
1.24634e-26
1.73662e-27
-2.32297e-28
-6.86232e-29
-3.55883e-30
1.21935e-30
2.25077e-31
5.23901e-33
-3.29973e-33
-5.3926e-34
-1.77467e-35
5.18988e-36
9.5744e-37
-1.66997e-05
-2.49828e-05
-6.37953e-33
6.72567e-35
-4.53869e-35
3.97336e-35
6.94944e-34
-5.53531e-33
-3.19667e-32
-3.27509e-32
-1.20525e-31
4.58333e-37
-5.04843e-35
-7.62941e-30
-1.23703e-28
-2.21414e-27
-1.9694e-27
6.84952e-26
1.28989e-24
5.0043e-24
-1.10603e-22
-7.11858e-22
6.97684e-21
8.16492e-20
-1.04919e-19
-2.69211e-18
6.70161e-17
3.84642e-16
2.08517e-15
-7.08517e-15
-3.80121e-14
4.80738e-13
7.01663e-13
-3.31568e-12
-1.06833e-11
7.86373e-11
4.24316e-10
-2.35099e-09
2.70875e-09
4.77051e-09
-2.65509e-08
4.9078e-08
3.92208e-08
-1.99024e-07
-5.44258e-07
8.18442e-07
6.45118e-06
1.59595e-05
-4.12902e-05
-0.000238577
-0.000317557
0.000683766
0.00566228
0.00928079
-1.62993e-06
-7.78345e-06
1.07711e-06
1
1
1
1
1
1
1
1
1
1
1
1
1
1
1
1
1
1
1
1
1
1
1
1
1
1
1
1
1
1
1
1
1
1
1
1
1
1
1
1
1
1
1
1
1
1
1
1
1
1
1
1
1
1
1
1
1
1
1
1
1
1
1
1
1
1
1
1
1
1
1
1
1
1
1
1
1
1
1
1
1
1
0.999999
1
1
1
1
1
0.999996
0.999997
0.999992
0.999992
0.999996
0.999993
1.00001
1
1.00003
1.00002
1.00004
1.00004
1.00007
1.00007
1.00008
1.00009
1.00002
1.00007
0.999818
0.999951
0.999456
0.99969
0.998815
0.999239
0.997723
0.998395
0.995885
0.996917
0.992785
0.994425
0.988078
0.990403
0.981797
0.984928
0.973531
0.9776
0.962739
0.967838
0.949301
0.955538
0.932897
0.940433
0.913123
0.922077
0.889424
0.899996
0.862404
0.874137
0.832522
0.845592
0.798463
0.813037
0.761523
0.777041
0.722686
0.738255
0.681643
0.698864
0.638483
0.656054
0.594561
0.612578
0.549579
0.567696
0.504963
0.522817
0.461383
0.478593
0.418029
0.435108
0.376696
0.392948
0.336552
0.351777
0.299404
0.313613
0.264771
0.277536
0.232876
0.245078
0.203275
0.214334
0.176143
0.186056
0.151331
0.16045
0.128945
0.136997
0.109161
0.116315
0.0913808
0.0977432
0.0750433
0.0805377
0.0611681
0.0656461
0.0493954
0.0527933
3.09839e-05
-1.13942e-05
0.0183789
-0.00459306
-4.40635e-10
-5.18254e-10
-0.000867393
7.78045e-05
0.0246063
5.27193e-38
0.572277
2.02298e-37
1.16783e-33
0.872928
0.0344247
1.42844e-09
9.19173e-11
6.45133e-07
-8.21647e-08
2.54641e-34
1.50348e-06
5.74375e-11
0.0181781
-1.28927e-14
-8.77937e-13
1.70701e-13
-8.67506e-15
-3.56174e-15
1.00027e-15
-9.08579e-17
-1.43207e-17
5.83148e-18
-7.34774e-19
-4.24459e-20
3.04289e-20
-6.56349e-21
2.67183e-22
3.02258e-22
-1.14279e-22
2.09487e-24
1.05052e-23
1.5161e-25
-7.20827e-25
-7.30972e-26
1.96376e-26
5.80997e-27
9.86248e-29
-1.63398e-28
-2.09505e-29
1.06914e-30
6.24935e-31
5.66391e-32
-3.95338e-33
-1.53092e-33
-1.3922e-34
5.62981e-36
2.60819e-36
6.53327e-12
4.29686e-37
0.0144976
0.0179633
-0.003371
1.10689e-34
2.97263e-34
6.58321e-38
0.921152
3.12945e-29
3.18245e-29
1.55382e-30
-1.13189e-28
1.86701e-30
4.07091e-28
6.69202e-27
-2.86565e-26
-3.367e-25
-2.79472e-24
9.60744e-24
3.62825e-22
-1.23276e-22
-3.31166e-20
-1.43222e-19
1.51886e-18
-9.83181e-18
-2.04327e-16
-8.83055e-16
-1.86587e-15
2.87658e-14
-6.68802e-14
-1.05166e-12
1.42259e-12
4.03e-12
1.8564e-11
-3.27489e-10
5.36668e-10
2.09543e-09
-4.7724e-09
-4.21811e-09
2.08537e-08
4.26317e-09
8.65083e-08
-6.81052e-07
-4.59288e-07
2.98031e-06
1.45346e-05
5.59351e-07
-0.000134133
-0.00033932
-6.42817e-05
0.00260322
0.000195338
4.00775e-28
0.0400055
0.0738136
0.000138865
0.00538851
0.000517943
-0.000362552
-0.000237392
-3.39517e-05
1.81102e-05
6.23526e-06
5.03587e-07
-6.21865e-07
-1.50449e-07
3.99368e-08
4.90115e-08
-2.71234e-08
3.90955e-09
3.04574e-09
-2.17616e-09
3.06637e-10
8.17224e-11
-1.17235e-11
-2.78001e-12
4.60773e-13
5.18182e-13
-2.62862e-14
-9.39947e-15
1.72767e-15
3.706e-16
7.57786e-17
-1.58549e-18
-2.57389e-19
8.15154e-20
8.46375e-21
-6.6042e-22
2.80228e-36
1.1987e-35
-9.38939e-35
-1.59311e-33
-7.2034e-33
3.46965e-32
6.7001e-31
2.57301e-30
-1.53313e-29
-1.954e-28
-3.4514e-28
5.72178e-27
3.16391e-26
-1.99036e-26
-8.66041e-25
-1.53117e-24
1.16477e-23
2.93281e-23
-1.39693e-22
1.72391e-23
1.41763e-21
-7.26437e-21
1.25855e-20
8.94783e-20
-1.09818e-18
3.95603e-18
6.90689e-18
-1.71555e-16
8.42967e-16
-4.38242e-18
-2.72042e-14
-1.09124e-07
-6.80647e-10
0.00237037
-0.000147298
-0.000353537
-0.000126181
5.17701e-06
1.45703e-05
2.68309e-06
-5.89863e-07
-6.60872e-07
9.58926e-08
1.23786e-08
1.33685e-08
-2.84239e-09
-3.90716e-09
1.39158e-09
6.65085e-10
-3.08657e-10
1.66288e-11
3.40608e-12
1.47055e-12
-9.71665e-13
-1.00195e-13
2.88625e-14
-6.03795e-16
-8.0295e-16
-1.9722e-16
-1.45373e-17
1.62835e-18
-9.66749e-20
-3.42446e-20
-5.45519e-22
-0.00678227
-0.0031757
-0.00995505
3.95452e-22
1.89918e-23
-2.7653e-24
-3.98425e-25
-3.6092e-26
5.594e-27
6.50334e-36
1.8643e-36
-4.84526e-34
-4.13029e-33
-4.69987e-33
1.98051e-31
1.66212e-30
2.90009e-31
-6.61881e-29
-3.93441e-28
1.02125e-27
1.54814e-26
3.83406e-26
-2.69465e-25
-1.64341e-24
1.8467e-24
2.59697e-23
-1.72547e-23
-2.31052e-22
8.02201e-22
-6.3266e-22
-1.12866e-20
7.82479e-20
-2.7603e-19
-8.50131e-19
1.32268e-17
-5.83305e-17
-4.37502e-17
2.08566e-15
-1.16319e-14
7.87854e-15
2.89886e-13
-2.47505e-12
3.1459e-37
0.64697
6.59682e-37
3.93953e-07
-1.16855e-07
2.8395e-37
1.64758e-13
-3.26549e-13
-3.84306e-12
9.06511e-37
2.31903e-36
-1.36871e-22
3.36489e-24
1.35384e-24
8.54063e-26
-8.11778e-30
2.72619e-27
-2.25378e-27
0.00045649
-8.04472e-08
0.00778431
-1.48444e-22
1.00293
1.00828
1.01211
1.00307
1.00796
1.00022
1.00185
0.999626
0.999683
0.999808
0.999572
0.999981
0.999882
1.00002
1.00002
1.00001
1.00003
1
1.00001
0.999999
0.999999
0.999999
0.999998
1
0.999999
1
1
1
1
1
1
1
1
1
1
1
1
1
1
1
1
1
1
1
1
1
1
1
1
1
1
1
1
1
1
1
1
1
1
1
1
1
1
1
1
1
1
1
1
1
1
1
1
1
1
1
1
1
1
1
1
1
1
1
1
1
1
1
1
1
1
1
1
1
1
1
1
1
1
1
1
1
1
1
1
1
1
1
1
1
1
1
1
1
1
1
1
1
1
1
1
1
1
1
1
1
1
1
1
1
1
1
1
1
1
1
1
1
1
1
1
1
1
1
1
1
1
1
1
1
1
1
1
1
1
1
1
1
1
1
1
1
1
1
1
1
1
1
1
1
1
1
1
1
1
1
1
1
1
1
1
1
1
1
0.699446
1
2.67463e-37
0.113514
5.30321e-37
0.0292195
0.228572
5.73605e-09
-1.50644e-10
5.09911e-07
-2.28502e-08
4.50401e-34
-4.40343e-10
-4.58045e-10
1.22949e-06
1.81553e-06
1.39007e-06
1.33313e-36
9.17736e-12
-2.12956e-12
3.98611e-09
2.7054e-07
-1.14256e-07
1.76606e-13
-1.49848e-14
-2.05928e-15
8.967e-16
-1.11272e-16
-5.83926e-18
4.9839e-18
-8.12621e-19
2.1292e-20
2.33974e-20
-7.43295e-21
7.91249e-22
2.76527e-22
-1.65291e-22
-2.79564e-24
1.38917e-23
1.33258e-24
-7.06814e-25
-1.33737e-25
8.17125e-27
5.87576e-27
4.85294e-28
-1.01056e-28
-2.49045e-29
-1.06944e-30
4.41762e-31
7.39838e-32
2.17076e-33
-9.34379e-34
-1.34663e-34
3.05879e-11
3.00202e-11
0.0186569
-0.00734108
-5.52907e-35
-5.73785e-28
0.022723
1.52925e-30
-9.61393e-29
-0.000126951
-4.91566e-36
-2.03954e-27
6.8721e-27
5.33316e-27
5.43707e-27
9.64518e-26
1.5365e-24
4.84637e-24
1.33103e-23
2.38947e-23
-1.69697e-22
9.47746e-37
1.55192e-36
-9.61284e-22
7.58003e-21
9.98895e-20
-1.25528e-19
-3.19521e-18
8.04646e-17
4.66266e-16
2.20766e-15
-8.09531e-15
-4.96032e-14
5.94524e-13
1.27004e-12
-3.74832e-12
-1.5799e-11
5.43341e-11
6.05722e-10
-2.79174e-09
2.35684e-09
6.78068e-09
-3.17424e-08
5.71631e-08
6.68521e-08
-3.4925e-07
-6.11391e-07
1.36264e-06
9.59486e-06
1.82027e-05
-6.93473e-05
-0.000321711
-0.000358055
0.00117058
9.7619e-36
8.48692e-34
2.55495e-28
2.43338e-28
-1.84982e-27
1
0.463773
1
1
1
1
1
1
1
1
1
1
1
1
1
1
1
1
1
1
1
1
1
1
1
1
1
1
1
1
1
1
1
1
1
1
1
1
1
1
1
1
1
1
1
1
1
1
1
1
1
1
1
1
1
1
1
1
1
1
1
1
1
1
1
1
1
1
1
1
1
1
1
1
1
1
1
1
1
1
1
1
1
1
1
1
0.999995
0.999997
0.999992
0.999992
0.999997
0.999994
1.00001
1
1.00002
1.00001
1.00004
1.00003
1.00007
1.00006
1.00008
1.00008
1.00002
1.00007
0.999859
0.999975
0.999574
0.999784
0.999043
0.999424
0.998085
0.998703
0.996368
0.997376
0.993413
0.995033
0.989054
0.991244
0.983242
0.986255
0.975312
0.979284
0.96512
0.97003
0.952337
0.958613
0.936509
0.944083
0.917401
0.926377
0.894449
0.905157
0.868235
0.880081
0.839194
0.852349
0.805197
0.820237
0.768959
0.784434
0.730312
0.746851
0.689583
0.707156
0.647394
0.665257
0.603913
0.622529
0.558704
0.577136
0.514401
0.53268
0.470202
0.488385
0.426378
0.444038
0.38537
0.401654
0.344258
0.360629
0.306341
0.320912
0.271277
0.28496
0.23878
0.251679
0.208858
0.22035
0.181415
0.19225
0.15531
0.165092
0.132857
0.141285
0.112792
0.120477
0.0942145
0.10097
0.0770824
0.082792
0.0626902
0.0677872
0.0495656
0.0539047
0.000126296
0.000292128
0.000347145
0.000322973
0.756643
4.75716e-22
-8.93278e-22
3.97966e-34
1.0013e-34
-1.85901e-10
-7.56028e-10
0.0124612
0.0122348
0.0187308
0.00380787
0.00749839
9.62735e-35
4.62662e-34
2.49666e-29
-6.31229e-29
-2.0812e-36
-8.38558e-37
-6.0505e-35
1.80457e-13
3.62391e-13
-0.00272339
-0.00153449
6.73403e-35
-1.75957e-36
8.9136e-37
-3.06424e-32
-1.17928e-32
-1.22775e-32
0.0300429
-5.7856e-11
1.39308e-11
-9.34301e-23
-1.2757e-22
-1.82289e-05
0.0420851
2.00754e-09
2.71998e-21
-5.49471e-21
1.26142e-09
9.46367e-09
2.45706e-12
-1.47915e-12
-9.4575e-19
-3.38333e-19
0.00345614
1.20354e-17
9.57807e-18
-3.92718e-12
-5.31106e-13
3.84666e-14
-1.21884e-14
1.34385e-15
1.23062e-16
-6.64829e-17
1.25945e-17
2.63668e-19
-1.30514e-19
7.14842e-20
-1.42115e-20
-2.10505e-21
9.32255e-22
-3.47498e-22
-7.10397e-23
1.65615e-23
6.55632e-24
-6.30141e-25
-3.81941e-25
-2.2419e-26
1.0681e-26
2.20018e-27
-3.28198e-29
-6.20106e-29
-7.36947e-30
4.13595e-31
2.10664e-31
1.91906e-32
-1.05121e-33
-3.95085e-34
5.2181e-11
-3.48423e-35
0.0235101
-1.60485e-16
1.31561e-12
1.10105e-12
3.08709e-14
1.5037e-13
6.45598e-16
1.07216e-15
0.0379823
0.935175
8.44333e-33
-7.12717e-32
1.77797e-30
-0.00740284
5.97709e-09
0.96961
5.00789e-22
-2.52228e-35
0.80381
-6.35761e-30
-4.17102e-26
-3.99885e-25
-3.38678e-24
-2.29859e-22
2.95084e-22
0.0569193
9.32144e-21
0.202537
-3.68372e-20
-1.41992e-19
1.67113e-18
-1.07892e-17
-2.26117e-16
-8.72726e-16
-2.14194e-15
3.58403e-14
-5.45558e-14
-1.3812e-12
-3.09557e-12
4.65202e-12
3.50865e-11
-3.92729e-10
3.51092e-10
3.20727e-09
-5.5365e-09
-1.00208e-08
3.58975e-08
3.06571e-09
7.89628e-08
-8.84058e-07
-4.33272e-07
4.32997e-06
1.9656e-05
-7.18003e-06
-0.000192982
-0.000429279
5.1871e-05
7.80514e-10
-7.70529e-06
-2.00856e-05
-3.86177e-06
-3.21048e-32
7.04991e-05
3.362e-06
0.266977
0.00098575
-0.000419503
-0.000324292
-6.09744e-05
2.10965e-05
9.33363e-06
9.96908e-07
-7.25302e-07
-2.87792e-07
6.73416e-08
5.86962e-08
-3.25681e-08
5.80619e-09
2.91393e-09
-2.60247e-09
4.68382e-10
6.55982e-11
9.42858e-13
6.28441e-13
-3.9394e-34
-1.94517e-33
1.29984e-32
2.16795e-31
8.92787e-22
8.83506e-31
-5.43501e-30
-7.17949e-29
-1.77407e-28
1.90535e-27
1.44833e-26
1.59203e-27
-4.04986e-25
-1.4422e-24
5.57301e-24
3.07075e-23
-6.001e-05
-0.000452569
-0.000183835
-2.55012e-07
1.99644e-05
3.98242e-06
-6.20153e-07
-8.73721e-07
9.9806e-08
1.27772e-08
2.65847e-08
-7.89994e-09
-4.70066e-09
2.34888e-09
5.55749e-10
-3.71148e-10
3.27139e-11
-0.000567361
-0.00980062
3.80796e-12
-1.29623e-12
-9.75824e-14
3.60067e-14
-6.66917e-16
-7.84088e-16
-2.2096e-16
-4.26139e-17
-1.59385e-17
1.83031e-18
-9.87579e-20
-4.47226e-25
-6.38444e-30
-5.00844e-26
-1.20374e-34
-1.10415e-33
-7.38189e-34
6.60989e-32
5.47361e-31
1.77966e-31
-2.38797e-29
-1.45503e-28
1.88745e-28
6.40938e-27
1.98754e-26
-1.04634e-25
-9.73045e-25
-2.96281e-25
1.77017e-23
2.75099e-23
-1.1142e-16
2.11279e-15
-2.88947e-19
-6.85719e-21
-2.0416e-22
-1.86837e-12
1.22216e-19
-9.33577e-15
2.96321e-18
-6.06127e-15
-2.72566e-14
-1.15792e-18
7.21848e-20
3.40011e-22
1.9205e-21
-3.99797e-23
-3.63533e-14
-1.09442e-14
1.81724e-15
4.12713e-16
8.75002e-17
-2.08507e-18
8.73491e-20
2.8134e-24
1.63533e-24
1.05561e-25
2.2544e-29
-3.16765e-24
-3.82788e-20
-1.60899e-11
-2.2925e-05
-2.70668e-12
0.000244632
1.00755
1.00503
1.00848
1.00124
1.00397
0.999701
1.00032
0.999651
0.999415
0.999889
0.999679
1.00001
0.99995
1.00002
1.00003
1.00001
1.00002
1
1
0.999999
0.999998
0.999999
0.999999
1
1
1
1
1
1
1
1
1
1
1
1
1
1
1
1
1
1
1
1
1
1
1
1
1
1
1
1
1
1
1
1
1
1
1
1
1
1
1
1
1
1
1
1
1
1
1
1
1
1
1
1
1
1
1
1
1
1
1
1
1
1
1
1
1
1
1
1
1
1
1
1
1
1
1
1
1
1
1
1
1
1
1
1
1
1
1
1
1
1
1
1
1
1
1
1
1
1
1
1
1
1
1
1
1
1
1
1
1
1
1
1
1
1
1
1
1
1
1
1
1
1
1
1
1
1
1
1
1
1
1
1
1
1
1
1
1
1
1
1
1
1
1
1
1
1
1
1
1
1
1
1
1
1
1
1
-2.11196e-19
-3.92477e-10
-2.02959e-32
-2.89693e-13
3.82511e-34
3.67342e-37
-3.91783e-24
-2.17971e-22
-3.18978e-08
6.31376e-22
-1.96582e-22
-4.517e-22
6.96506e-20
1.14491e-21
-1.73886e-14
1.37581e-13
2.26162e-13
3.31244e-13
-4.10107e-19
1.42258e-15
3.47544e-18
1.20226e-18
1.54814e-14
9.52201e-14
-1.87917e-14
9.61336e-18
1.02992e-17
-1.49527e-19
-6.49637e-16
1.77438e-15
5.54303e-13
-1.16551e-17
1.82635e-18
1.51195e-17
4.17914e-12
-1.76227e-12
7.11602e-20
-4.21027e-21
1.39462e-19
-7.63578e-19
-7.07644e-19
0.00545601
-7.34658e-21
-2.38384e-30
2.53422e-22
1.00064e-21
-1.7884e-22
-6.65792e-14
0.000276367
-1.95321e-23
1.52019e-23
2.58541e-24
-4.73462e-25
-1.60962e-25
-2.93403e-27
4.52187e-27
6.90965e-28
-2.926e-29
-2.00601e-29
-8.33487e-30
-7.91853e-30
1.4184e-21
2.58987e-21
1.3055e-31
5.74547e-32
4.83712e-33
2.98544e-33
-7.6259e-11
0.568575
0.243387
0.0283256
-1.83416e-12
4.75233e-12
1.50075e-29
1.36124e-17
-0.00767335
-5.84095e-26
-1.43788e-08
0.0019499
0.00506554
1.59569e-34
-3.96366e-20
-2.14395e-34
-5.15252e-30
1.0406e-29
1.95534e-24
-3.47059e-24
8.95118e-22
0.0253249
7.92717e-21
9.74604e-21
-4.04896e-20
-4.48371e-25
2.01748e-24
-1.01638e-20
-1.63692e-20
-1.63309e-19
-3.44969e-19
1.02804e-19
-1.09415e-19
-4.07369e-18
-1.75184e-17
-2.58601e-16
-9.18918e-16
-2.34652e-15
4.44874e-14
-5.16657e-14
-2.95474e-34
-5.11325e-34
6.74488e-13
-1.73906e-12
-3.80261e-12
3.40405e-12
-1.90147e-12
-4.33531e-12
-1.43087e-12
2.0039e-12
9.589e-13
5.71804e-11
-4.39714e-10
9.02587e-11
4.71047e-09
-6.16187e-09
-1.82046e-08
5.8529e-08
3.41452e-09
4.78342e-08
-1.11106e-06
-3.69482e-07
6.39252e-06
2.59781e-05
-2.01531e-05
-0.000274848
-0.000535268
-0.000377025
0.000118653
5.09085e-09
-8.96843e-08
1
1
1
1
1
1
1
1
1
1
1
1
1
1
1
1
1
1
1
1
1
1
1
1
1
1
1
1
1
1
1
1
1
1
1
1
1
1
1
1
1
1
1
1
1
1
1
1
1
1
1
1
1
1
1
1
1
1
1
1
1
1
1
1
1
1
1
1
1
1
1
1
1
1
1
1
1
1
1
1
1
1
1
0.999995
0.999997
0.999992
0.999993
0.999998
0.999995
1.00001
1
1.00002
1.00001
1.00004
1.00003
1.00006
1.00005
1.00007
1.00007
1.00003
1.00007
0.999913
1.00001
0.999703
0.999887
0.999286
0.999607
0.998446
0.999013
0.996854
0.997802
0.994121
0.995686
0.990129
0.992247
0.984849
0.987686
0.977394
0.981387
0.967673
0.972649
0.955799
0.962027
0.940892
0.94836
0.922298
0.93139
0.900406
0.910765
0.875314
0.887236
0.846596
0.859712
0.813468
0.829247
0.777467
0.793686
0.739683
0.757434
0.699464
0.717186
0.658194
0.676434
0.61464
0.633521
0.569324
0.589203
0.524512
0.543321
0.48144
0.499796
0.436751
0.455631
0.394378
0.411364
0.353565
0.371182
0.314611
0.330517
0.279283
0.294092
0.246434
0.259769
0.216185
0.22862
0.187538
0.198822
0.161033
0.171718
0.137454
0.146358
0.117517
0.12541
0.0978364
0.105495
0.0790989
0.0856763
0.0648465
0.0701693
0.0516238
0.0568078
-1.28956e-21
2.65633e-22
2.42576e-11
1.84423e-11
-8.75547e-35
1.20368e-09
4.45597e-09
9.37411e-11
-6.23402e-34
3.26569e-34
-1.96388e-32
-4.87445e-17
-2.30189e-17
6.16553e-34
1.0478e-34
-7.76153e-36
-3.54549e-10
-2.89979e-10
-2.61579e-35
-2.16909e-35
4.97223e-09
9.73737e-09
3.0697e-11
6.23312e-12
5.16108e-11
0.579475
0.883085
0.663357
-5.4707e-36
-6.11659e-08
5.3842e-28
1.16603e-28
1.53751e-12
-1.31806e-07
-6.98687e-08
2.98941e-24
5.1916e-24
-1.50778e-25
-4.57672e-26
-4.22429e-06
-1.37799e-18
-3.55531e-34
-1.60204e-05
-2.49306e-32
5.4654e-20
1.27911e-20
-1.69459e-08
-1.70311e-09
-7.95571e-25
-3.69765e-25
9.09777e-29
0.0161315
2.07426e-23
8.18192e-24
1.84165e-13
1.1129e-23