/*--------------------------------*- C++ -*----------------------------------*\
  =========                 |
  \\      /  F ield         | OpenFOAM: The Open Source CFD Toolbox
   \\    /   O peration     | Website:  https://openfoam.org
    \\  /    A nd           | Version:  7
     \\/     M anipulation  |
\*---------------------------------------------------------------------------*/
FoamFile
{
    version     2.0;
    format      ascii;
    class       volScalarField;
    location    "0.8";
    object      T;
}
// * * * * * * * * * * * * * * * * * * * * * * * * * * * * * * * * * * * * * //

dimensions      [0 0 0 1 0 0 0];

internalField   nonuniform List<scalar> 
45544
(
0
0
0
0
0
0
0
0
0
0
0
0
0
0
0
0
0
0
0
0
0
0
0
0
0
0
0
0
0
0
0
0
0
0
0
0
0
0
0
0
0
0
0
0
0
0
0
0
0
0
0
0
0
0
0
0
0
0
0
0
0
0
0
0
0
0
0
0
0
0
0
0
0
0
0
0
0
0
0
0
0
0
0
0
0
0
0
0
0
0
0
0
0
0
0
0
0
0
0
0
0
0
0
0
0
0
0
0
0
0
0
0
0
0
0
0
0
0
0
0
0
0
0
0
0
0
0
0
0
0
0
0
0
0
0
0
0
0
0
0
0
0
0
0
0
0
0
0
0
0
0
0
0
0
0
0
0
0
0
0
0
0
0
0
0
0
0
0
0
0
0
0
0
0
0
0
0
0
0
0
0
0
0
0
0
0
0
0
0
0
0
0
0
0
0
0
0
0
0
0
0
0
2.70098e-38
1.28158e-32
-2.05179e-30
1.6583e-27
-1.24218e-26
-1.84611e-25
2.27172e-24
-1.91253e-24
-6.96159e-24
-2.69626e-24
-6.76116e-24
-1.37297e-23
-9.21303e-24
-8.49414e-24
2.99304e-24
4.37406e-24
-3.02999e-24
5.57848e-24
-3.26944e-22
-1.80013e-21
-1.70312e-22
-1.48521e-21
4.42581e-22
2.5715e-21
4.9013e-20
6.25495e-20
5.45684e-20
3.26605e-20
3.95131e-20
4.75714e-20
7.60669e-21
-1.00276e-20
1.65571e-20
3.48463e-20
-6.41012e-20
-1.13094e-19
-1.50697e-19
-1.65374e-19
-7.42485e-20
-5.66387e-21
1.11726e-19
7.51906e-20
5.10593e-20
1.27684e-19
3.33267e-20
-5.79712e-20
-8.28084e-19
-1.22393e-18
-1.64334e-18
-1.18257e-18
-1.0912e-18
-4.72382e-19
1.54768e-19
1.29212e-18
1.53183e-18
2.35412e-18
2.41295e-18
1.35292e-18
8.05185e-19
9.36873e-21
-5.49404e-19
-9.27906e-19
-7.76146e-19
-9.70157e-19
-9.22432e-19
-4.60121e-19
-3.49747e-19
-1.11823e-19
-2.98728e-20
7.28016e-20
9.65197e-20
1.32715e-19
1.29308e-19
8.62966e-20
6.30643e-20
4.68028e-20
3.01424e-20
1.5483e-20
2.33346e-21
-1.82781e-21
-3.51681e-21
-4.23106e-21
-4.56803e-21
-3.23454e-21
-3.22682e-21
-2.63018e-21
-1.38717e-21
-9.648e-22
-4.4949e-22
-3.17533e-22
-1.73939e-22
-8.5244e-23
-1.97105e-23
1.74729e-23
2.21295e-22
6.33933e-21
-2.48039e-18
0
0
0
0
0
0
0
0
0
0
0
0
0
0
0
0
0
0
0
0
0
0
0
0
0
0
0
0
0
0
0
0
0
0
0
0
0
0
0
0
0
0
-6.31886e-121
2.66877e-123
-6.60993e-113
-5.93118e-113
-5.46809e-110
-8.5976e-110
8.77432e-108
7.86379e-107
1.38564e-104
1.59189e-104
1.34951e-103
1.19057e-103
-1.60069e-101
-1.12147e-101
-1.88633e-99
-1.8783e-99
-2.51793e-99
-3.36975e-99
-1.3772e-98
5.80928e-98
-5.08542e-98
4.9578e-98
4.30725e-96
-7.7642e-96
5.61074e-94
-8.07453e-94
1.98741e-92
-2.88439e-92
1.20942e-91
7.00583e-92
1.14959e-91
5.73111e-92
3.93923e-91
-9.69417e-91
2.76128e-90
1.50063e-90
3.33503e-90
4.11937e-90
3.89427e-90
6.273e-90
5.89987e-90
-4.14448e-90
-1.72254e-89
7.45499e-89
-1.13593e-88
2.77158e-88
-9.54099e-88
1.73112e-89
-1.09078e-87
-7.08169e-88
-5.44973e-88
-1.32947e-87
1.73987e-88
-1.47054e-87
5.17311e-88
-1.60498e-86
5.98173e-88
-1.98606e-86
2.39683e-86
-7.18012e-86
1.35135e-85
-2.97058e-86
8.69276e-85
3.89272e-85
8.73518e-84
1.13011e-83
-7.42182e-83
2.06941e-82
-5.12637e-82
-5.12735e-82
-1.22518e-81
-2.06475e-81
7.8471e-82
-7.38961e-81
-6.80937e-80
8.69073e-80
-2.50316e-79
-3.31972e-78
1.97715e-78
-9.91888e-78
5.13846e-78
-1.12039e-77
1.17127e-77
-2.23001e-77
4.20643e-77
-1.56418e-77
-2.21217e-76
9.54695e-76
-8.41888e-76
1.6757e-75
-7.10998e-75
4.49751e-75
-1.39979e-74
-1.56322e-74
-6.38803e-75
-2.17581e-74
2.47287e-75
-2.26693e-74
1.55081e-74
-2.10544e-74
-1.5332e-74
7.74401e-74
-7.77582e-74
1.23171e-73
-2.84161e-73
4.00386e-73
-9.91028e-73
-1.9049e-72
-1.92196e-73
-2.76854e-72
9.59339e-73
-3.61772e-72
3.23317e-72
-1.79824e-72
2.40962e-72
4.49949e-73
5.81067e-72
-7.66924e-72
1.89182e-71
6.06443e-71
-3.13876e-73
9.66139e-71
-7.24402e-71
1.71788e-70
-1.2325e-70
1.17414e-70
-1.09175e-70
-1.05549e-70
-3.14039e-71
-2.56602e-70
1.21185e-70
-3.15829e-70
6.68293e-71
-5.55522e-70
5.07454e-70
-1.33034e-69
6.01891e-70
-8.52987e-70
1.00395e-69
-1.66468e-69
5.86126e-70
4.51972e-70
5.0373e-70
6.08749e-70
5.36191e-70
2.1718e-69
3.05258e-69
4.88327e-69
3.22408e-69
7.69075e-69
1.03109e-69
5.35443e-69
-6.78534e-70
6.90889e-69
5.45143e-70
6.48491e-69
2.24584e-69
2.10157e-68
-5.507e-69
2.83719e-68
-1.44942e-68
2.81898e-68
-1.73803e-68
5.09337e-68
-3.85652e-68
8.64377e-68
-5.41955e-68
7.04797e-68
-4.26381e-68
2.55783e-68
-4.22428e-68
7.63431e-68
-5.32768e-68
1.02754e-67
-6.70257e-68
1.22462e-67
-8.05348e-68
1.52473e-67
-9.09163e-68
1.71543e-67
-1.30705e-67
1.9185e-67
-1.20575e-67
2.17715e-67
-1.46868e-67
3.39427e-67
-2.56776e-67
4.31866e-67
-3.58927e-67
5.47943e-67
-4.3335e-67
7.09087e-67
-5.93964e-67
1.05295e-66
-7.99105e-67
1.1479e-66
-9.95461e-67
1.52484e-66
-1.37868e-66
1.70126e-66
-1.34918e-66
9.58455e-67
-1.26107e-66
4.544e-67
-1.13343e-66
3.63321e-67
-1.02013e-66
3.96317e-67
-1.46041e-66
2.64972e-67
-1.1341e-66
9.78834e-67
-1.68673e-66
2.44579e-66
-2.52433e-66
3.30304e-66
-2.90174e-66
3.23895e-66
-3.2491e-66
3.75055e-66
-3.76762e-66
3.91597e-66
-4.13308e-66
4.54036e-66
-4.66065e-66
3.58316e-66
-4.45592e-66
3.4868e-66
-4.15004e-66
3.2122e-66
-4.05412e-66
2.66825e-66
-3.67558e-66
2.53466e-66
-3.23477e-66
2.51793e-66
-3.10187e-66
1.69631e-66
-2.36847e-66
1.99507e-66
-2.22756e-66
1.1524e-66
-1.98472e-66
1.17406e-66
-1.26704e-66
4.77263e-67
-4.16797e-67
1.41412e-66
-5.94417e-67
1.18389e-66
-4.23927e-67
1.84532e-67
-1.37701e-67
6.22121e-67
1.24859e-67
2.46736e-67
3.95538e-67
-1.07456e-67
5.53338e-67
-5.38226e-67
5.16171e-67
-3.01325e-67
5.96144e-67
-4.32943e-67
5.81231e-67
-2.8684e-67
8.06365e-67
-2.57287e-67
6.88815e-67
-1.66979e-67
7.93878e-67
-4.57683e-67
7.55993e-67
-3.19986e-67
6.66041e-67
-4.78824e-67
6.7386e-67
-3.61869e-67
5.71906e-67
-3.29333e-67
4.72993e-67
-3.68015e-67
4.09671e-67
-2.80343e-67
3.67592e-67
-4.63024e-68
1.33514e-67
-1.85342e-67
1.23722e-67
-1.28524e-67
4.78223e-68
-1.00678e-67
-1.28089e-68
-1.38434e-67
6.04098e-70
-7.48415e-68
-1.62062e-68
5.40363e-69
-1.69697e-67
-7.76462e-68
-1.16921e-67
-3.71942e-68
-1.27602e-67
6.83989e-68
-1.39381e-67
5.7494e-68
-1.30615e-67
3.41096e-68
-1.14407e-67
3.68275e-68
-1.16384e-67
1.97433e-68
-8.42683e-68
1.26424e-68
4.24558e-68
-1.23973e-67
4.49726e-65
-4.51846e-66
-4.8442e-65
-6.40608e-64
2.96103e-63
-4.2847e-62
3.54975e-59
-4.15636e-61
-1.2024e-57
-1.25082e-57
2.79566e-56
1.83744e-56
-3.95903e-54
-6.48023e-55
7.7145e-53
8.75012e-53
-2.76702e-52
-1.36282e-51
6.14594e-52
8.04338e-51
-3.79315e-51
-3.84147e-51
-3.10083e-50
2.52576e-50
-3.31045e-47
8.76199e-49
1.27263e-45
5.30945e-46
1.97251e-44
-1.6773e-44
-3.74022e-43
-3.09219e-43
-1.42924e-43
3.02896e-42
-1.28317e-42
-4.60273e-42
1.2352e-40
1.41966e-41
-1.17753e-39
2.03809e-17
-2.4435e-16
9.08562e-16
-2.82534e-14
3.27854e-12
-1.73541e-11
-8.54193e-11
1.2118e-08
9.27263e-08
2.98189e-07
5.43938e-07
7.07641e-07
7.55083e-07
7.5809e-07
7.5423e-07
7.47987e-07
7.35725e-07
6.88896e-07
5.77832e-07
4.13514e-07
2.47188e-07
1.22875e-07
4.9157e-08
1.62211e-08
3.94376e-09
6.41377e-10
4.9165e-11
-1.10039e-11
-4.09963e-12
-3.57402e-13
5.50772e-14
4.84359e-15
-8.90848e-16
2.05086e-17
5.95791e-18
-7.11372e-19
4.26067e-20
-1.51165e-21
3.23085e-23
3.11142e-25
-4.19623e-26
-7.12549e-28
2.93987e-28
-2.46781e-29
1.0452e-30
-1.85482e-32
-2.93461e-34
1.71689e-35
3.70982e-38
4.28728e-11
-4.00934e-11
2.63143e-12
1.37713e-11
-2.68668e-11
1.75068e-11
4.10482e-11
-4.729e-11
-1.86127e-11
-3.79136e-11
-4.20513e-11
-2.02679e-11
-3.212e-11
4.14998e-11
5.90467e-12
2.65739e-11
4.60234e-11
-2.03703e-11
-1.65923e-11
-5.99658e-12
6.31672e-12
1.26381e-11
2.50138e-11
6.0007e-11
1.07118e-10
1.3691e-10
1.31234e-11
-3.81074e-10
-1.04447e-10
-4.40386e-10
-2.08675e-10
-2.4963e-10
-4.27187e-10
-2.24519e-11
-3.98397e-10
7.1422e-10
3.73264e-10
1.12868e-09
1.10879e-10
2.2626e-09
-1.21702e-09
2.35191e-09
-3.5054e-09
-6.80588e-09
1.96889e-09
1.1302e-09
3.97507e-09
4.0266e-09
-1.23818e-09
3.50182e-10
-1.01329e-08
-9.25426e-09
7.5167e-09
-2.15305e-09
5.92168e-09
1.28578e-08
-1.24179e-08
-8.28546e-09
6.28316e-09
-5.44135e-09
4.13002e-09
1.17976e-08
-8.68976e-09
-7.09781e-09
6.08125e-09
-2.42667e-09
-1.31132e-09
6.09146e-09
-2.24372e-09
-4.61728e-09
2.50768e-09
6.78361e-10
-1.23305e-09
-4.19977e-10
4.31196e-10
-6.98236e-10
-4.16742e-10
4.36891e-10
-8.52114e-12
1.49893e-11
2.44307e-12
3.65904e-11
2.54091e-11
-3.30609e-12
1.1138e-10
-5.0306e-12
2.695e-10
4.20768e-10
-5.04814e-12
1.88895e-12
-4.42495e-12
4.87163e-13
2.40342e-12
-7.94328e-12
-5.3332e-12
2.00348e-11
-1.91712e-11
8.45561e-12
-6.89923e-19
0
0
1.84009e-43
1.15058e-34
5.51851e-31
9.72697e-29
1.00842e-26
1.26865e-26
5.07239e-25
-5.44034e-24
1.00605e-23
4.23678e-24
5.1976e-24
-9.5216e-24
-6.07268e-24
-1.02986e-23
-8.90112e-24
-7.51993e-24
-9.81732e-24
1.90324e-23
-2.02938e-22
2.28319e-21
-4.24248e-21
9.76477e-23
-3.90469e-21
5.70774e-21
-1.41206e-20
-5.83534e-20
-4.50967e-20
-5.52777e-21
3.04498e-20
2.48016e-20
4.97072e-20
7.77812e-20
5.25686e-20
4.53162e-23
3.9006e-20
9.11551e-20
4.4441e-20
1.62365e-20
-9.52194e-20
-6.61787e-20
-8.90054e-20
-1.58032e-19
1.02367e-19
2.17447e-19
1.78744e-19
4.41807e-20
-1.70566e-19
-6.3169e-19
-1.08637e-18
-1.42815e-18
-1.43655e-18
-8.96414e-19
-2.68212e-19
1.13835e-18
2.0714e-18
2.51029e-18
2.42604e-18
2.17443e-18
1.1719e-18
6.49047e-19
-1.83701e-19
-5.14036e-19
-1.25929e-18
-9.78072e-19
-9.01444e-19
-8.28048e-19
-3.92779e-19
-2.86571e-19
-4.9403e-20
4.95839e-20
1.10562e-19
1.34906e-19
1.2378e-19
1.25395e-19
7.19323e-20
5.6648e-20
3.66788e-20
2.02544e-20
9.29092e-21
5.91647e-22
-2.36474e-21
-4.94378e-21
-4.67486e-21
-4.53881e-21
-3.65984e-21
-2.88394e-21
-2.40499e-21
-1.3641e-21
-7.90658e-22
-3.84643e-22
-2.34738e-22
-1.26755e-22
-4.50802e-23
4.57558e-24
-4.74536e-23
-1.11751e-21
0
1.65613e-19
0
2.80433e-17
-4.12005e-17
-1.4848e-39
-1.06571e-16
3.39207e-16
8.7189e-16
6.42367e-14
1.08102e-11
-1.46994e-10
1.9347e-09
3.96572e-08
1.78543e-07
4.2254e-07
6.41413e-07
7.40252e-07
7.59193e-07
7.56454e-07
7.50727e-07
7.44415e-07
7.18145e-07
6.42437e-07
4.98488e-07
3.28279e-07
1.79024e-07
8.08386e-08
2.93552e-08
8.35863e-09
1.70789e-09
2.12251e-10
-1.5438e-12
-8.2469e-12
-1.51143e-12
2.35663e-15
2.55195e-14
-9.30715e-16
-2.2389e-16
2.75147e-17
-9.29908e-19
-6.445e-20
1.05329e-20
-8.63936e-22
4.82448e-23
-2.38813e-24
1.07868e-25
-4.42393e-27
1.41216e-28
-2.06518e-30
-7.54678e-32
4.76025e-33
-6.15501e-35
-1.79592e-36
-8.92893e-13
1.52241e-38
-1.29106e-10
3.37069e-10
-1.07523e-09
3.70967e-13
-1.16478e-11
-2.08744e-11
-2.6674e-11
-5.63481e-11
2.2972e-11
-1.57756e-11
-3.45451e-10
3.35571e-10
-1.26148e-11
-3.31661e-11
-1.47073e-11
8.97217e-12
-6.88867e-12
-1.02348e-12
-3.1609e-12
1.40825e-11
-2.23403e-11
1.69137e-11
-9.6986e-12
6.54308e-12
0
-1.40688e-43
-2.45724e-36
-2.60232e-31
-6.1484e-29
-1.19305e-26
4.85897e-26
7.41467e-25
-6.50337e-24
-9.21755e-24
-1.39868e-23
-4.18372e-24
-2.07034e-23
-2.47033e-23
-2.82886e-23
-3.5176e-23
-3.84773e-23
-3.90719e-23
-2.08649e-23
-1.54856e-22
-6.56785e-22
6.56164e-21
2.08591e-21
8.48292e-21
1.80444e-21
-1.4698e-20
-3.196e-20
1.28085e-20
-2.35648e-20
1.23361e-20
5.99784e-20
6.14394e-20
1.14682e-19
1.13137e-19
7.1704e-20
8.76304e-20
2.31413e-19
2.11779e-19
1.6214e-20
5.91774e-20
-1.8071e-20
-3.12869e-19
-2.93948e-19
1.23414e-19
2.00628e-19
5.24272e-19
1.73863e-18
2.01142e-18
3.03573e-18
2.76853e-18
1.12457e-19
-4.75466e-19
-2.27967e-18
-3.69623e-18
-4.30266e-18
-3.14633e-18
-2.90012e-18
-1.94389e-18
4.2939e-19
7.90568e-19
2.15953e-18
2.17741e-18
2.042e-18
9.03034e-19
1.0222e-18
7.10695e-19
-1.71879e-19
-1.89991e-20
-2.48567e-19
-2.04217e-19
-1.96043e-19
-1.75536e-19
-1.57932e-19
-1.14748e-19
-2.0339e-20
-4.25974e-20
2.67763e-21
9.62309e-21
5.62332e-21
1.27842e-20
8.78892e-21
6.8608e-21
4.58226e-21
4.85499e-21
2.48508e-21
2.09603e-21
1.68498e-21
-1.13853e-22
3.76424e-22
1.74281e-22
-2.67465e-23
3.51448e-23
-8.06949e-23
-3.28006e-23
-1.41788e-23
-6.91298e-23
1.17046e-21
-5.92894e-20
1.29819e-15
-5.02962e-14
7.09149e-12
-6.33342e-11
2.45062e-10
2.37365e-08
1.44793e-07
4.07005e-07
6.75692e-07
8.21839e-07
8.54428e-07
8.54618e-07
8.47973e-07
8.43006e-07
8.22321e-07
7.56182e-07
6.09513e-07
4.17251e-07
2.37159e-07
1.11841e-07
4.21859e-08
1.28483e-08
2.78849e-09
3.84052e-10
1.10182e-11
-1.17829e-11
-2.7104e-12
-8.17022e-14
4.43464e-14
-2.29492e-16
-4.90232e-16
4.42144e-17
-2.84123e-19
-2.18939e-19
2.44381e-20
-1.74158e-21
9.08479e-23
-4.49312e-24
1.97377e-25
-8.80438e-27
3.26722e-28
-6.62046e-30
-8.06133e-32
9.16519e-33
-1.64071e-34
-3.4576e-36
4.91036e-38
2.07196e-11
-2.61625e-12
-2.08396e-11
1.37759e-12
-3.79452e-11
2.86869e-11
9.42348e-11
-7.56275e-11
-1.94987e-10
4.0894e-10
-8.30651e-12
3.42128e-12
-4.21703e-12
-1.72499e-13
8.30619e-13
-9.2743e-12
-2.55086e-12
7.93582e-12
-8.96334e-12
4.30656e-12
0
-1.45205e-40
-3.97767e-33
-7.49545e-30
-1.35238e-27
-1.55248e-26
-4.63646e-26
-3.08808e-24
1.24428e-23
-7.23263e-24
-7.26697e-24
-4.12208e-23
-2.98865e-23
-2.81586e-23
-3.37622e-23
-2.507e-23
-2.82459e-23
-3.9182e-23
-1.67559e-22
8.29285e-22
-5.45655e-21
-2.12639e-21
-1.70778e-20
-1.20795e-20
-6.02875e-21
5.27868e-21
1.32874e-21
-3.82165e-20
4.21371e-21
1.73142e-20
-1.58181e-20
-5.73996e-20
-1.44218e-20
1.00942e-19
1.87008e-19
1.87392e-19
1.43115e-20
2.65515e-21
9.74264e-20
4.04029e-20
8.50144e-20
2.214e-19
-5.01726e-20
-2.12813e-19
-2.74215e-19
8.68278e-19
1.18979e-18
1.26372e-18
1.74965e-18
8.94681e-19
2.08991e-19
-1.49899e-18
-2.84002e-18
-5.07526e-18
-3.35724e-18
-4.0383e-18
-1.70928e-18
2.72122e-19
5.52849e-19
1.48273e-18
1.78913e-18
2.06828e-18
1.52994e-18
1.30302e-18
9.09107e-19
1.4469e-19
5.972e-20
-1.40244e-19
-1.87099e-19
-2.66603e-19
-1.71243e-19
-1.8163e-19
-1.11224e-19
-3.87726e-20
-3.99872e-20
-1.54548e-21
1.51973e-20
1.20663e-20
1.25968e-20
6.58007e-21
7.73126e-21
6.04563e-21
5.09083e-21
2.11559e-21
2.76571e-21
1.74397e-21
4.58034e-22
6.06633e-22
1.15933e-22
-5.7476e-23
5.64434e-24
-1.04029e-22
-6.31648e-23
-4.63334e-23
-2.03844e-23
7.94966e-22
1.14558e-20
1.4188e-11
-2.48374e-10
4.9046e-09
6.74874e-08
2.62035e-07
5.49782e-07
7.69997e-07
8.46433e-07
8.59015e-07
8.50253e-07
8.45336e-07
8.35118e-07
7.95577e-07
6.9286e-07
5.15564e-07
3.21059e-07
1.67289e-07
6.99759e-08
2.40842e-08
6.20802e-09
1.10571e-09
1.06064e-10
-1.23937e-11
-6.57383e-12
-7.7605e-13
7.05717e-14
1.18636e-14
-1.43211e-15
-1.44144e-17
1.3854e-17
-1.32528e-18
5.94262e-20
-8.69941e-22
-6.11378e-23
7.07064e-24
-3.75493e-25
1.10299e-26
1.37008e-28
-3.88122e-29
2.13028e-30
-4.85275e-32
-3.34962e-34
3.59149e-35
-3.12724e-40
-4.75017e-39
1.61735e-11
9.25334e-13
1.68882e-11
1.96981e-11
-2.58923e-11
-1.24788e-11
-1.19569e-10
-5.17223e-11
6.4567e-10
-3.68788e-10
5.5438e-12
-6.61055e-12
8.4841e-13
-3.39667e-12
-8.79457e-13
1.04634e-11
-1.69624e-11
8.26832e-12
-4.96335e-12
3.1639e-12
0
-3.70433e-16
4.5589e-13
-1.8085e-15
1.07075e-15
-1.07055e-11
0
-5.01699e-42
0
0
0
0
0
0
0
0
0
0
0
0
0
0
0
0
0
0
0
0
0
0
0
0
0
0
0
0
0
0
0
0
0
0
0
0
0
0
0
0
0
0
0
0
0
0
0
0
0
0
0
0
0
0
0
0
0
0
0
0
0
0
0
0
0
0
0
0
0
0
0
0
0
0
0
0
0
0
0
0
0
0
0
0
0
0
0
0
0
0
0
0
0
0
0
0
0
0
0
0
0
0
0
0
0
0
0
0
0
0
0
0
0
0
0
0
0
0
0
0
0
0
0
0
0
0
0
0
0
0
0
0
0
0
0
0
0
0
0
0
0
0
0
0
0
0
0
0
0
0
0
0
0
0
0
0
0
0
0
0
0
0
0
0
0
0
0
0
0
0
0
0
0
0
0
0
0
0
0
0
0
0
0
0
0
0
0
0
0
0
0
0
0
0
-3.93476e-16
-1.17692e-16
-2.89907e-16
1.61372e-15
-5.14187e-35
-6.47812e-30
-1.93535e-27
-1.14248e-25
4.88637e-26
5.04348e-24
-1.94637e-23
1.62429e-23
-4.52397e-23
-4.12338e-24
-1.08673e-22
-9.03292e-23
-1.02025e-22
-1.4158e-22
-1.94841e-22
-1.5647e-22
1.14254e-22
-1.02249e-22
-1.12867e-20
6.69802e-20
5.44455e-20
6.30058e-20
-4.74016e-20
-5.47999e-20
7.69067e-20
4.66835e-19
-8.25087e-20
-1.5101e-19
2.80234e-19
1.65627e-19
1.57109e-19
-2.14073e-20
-2.49917e-19
-3.90948e-19
2.70828e-19
1.29099e-18
-2.59207e-19
3.48976e-19
-9.31509e-20
-2.30072e-18
-1.4209e-18
1.00298e-19
-1.49571e-18
-3.51046e-18
3.37756e-18
7.43766e-18
2.05695e-17
3.17429e-17
2.27558e-17
2.91875e-17
2.36082e-17
8.31115e-18
-1.35289e-17
-2.25278e-17
-4.24832e-17
-4.91189e-17
-3.35453e-17
-2.69889e-17
-1.36452e-17
-2.98434e-18
5.24361e-18
9.88213e-18
1.53415e-17
1.68725e-17
1.03398e-17
9.20836e-18
6.37747e-18
3.17035e-18
9.44051e-19
-3.02085e-19
-1.35506e-18
-1.72548e-18
-1.36413e-18
-1.42308e-18
-9.11201e-19
-6.64638e-19
-5.22006e-19
-2.34645e-19
-1.37455e-19
-5.8065e-20
9.8108e-21
4.42687e-20
4.76935e-20
5.11763e-20
5.10552e-20
3.09258e-20
2.75674e-20
1.87471e-20
9.52935e-21
8.32112e-21
3.95108e-21
2.9588e-21
1.52404e-21
-1.0098e-21
1.71424e-20
-8.17159e-19
1.42273e-11
0
-1.29365e-18
0
0
0
0
0
0
0
0
0
0
0
0
0
0
0
0
0
0
0
0
0
0
0
0
0
0
0
0
0
0
0
0
0
0
0
0
0
0
0
0
0
0
2.2273e-121
1.00921e-121
-1.73657e-111
1.36118e-113
-1.89511e-106
-8.22854e-108
3.39959e-104
4.8969e-104
2.05507e-102
2.50914e-102
3.44962e-101
-8.68022e-101
-1.47778e-99
-7.10114e-100
-1.5583e-97
-1.77718e-97
-2.7319e-97
-4.47754e-97
-1.1689e-95
-6.81908e-97
-1.12549e-95
1.50027e-95
4.21366e-94
5.37409e-94
7.62796e-92
-2.68856e-92
1.05271e-90
-1.52565e-90
5.59458e-90
-7.80229e-90
1.18634e-89
-6.85428e-90
1.61372e-88
3.7775e-89
3.32201e-88
2.43103e-88
2.27253e-88
2.19606e-88
4.15913e-88
1.77815e-88
1.44522e-87
1.10115e-87
-1.3236e-87
3.32831e-87
-1.75052e-86
9.90884e-88
-5.14747e-86
-5.80463e-87
-4.6327e-86
1.37711e-86
-2.19055e-86
-3.44617e-86
-4.39574e-86
-1.25383e-85
-3.63028e-87
-1.16739e-84
4.2826e-85
-1.75909e-84
3.68442e-84
3.81027e-85
1.32158e-83
4.09924e-84
5.84232e-83
2.87113e-83
1.35968e-81
1.38113e-81
-5.15297e-81
1.74142e-80
-1.94695e-80
-8.28642e-81
-9.307e-80
-1.25451e-79
9.64705e-79
6.22417e-79
-1.25098e-77
4.73715e-77
-6.3593e-78
-1.34133e-76
2.77247e-76
-9.31471e-76
5.06665e-76
-1.01056e-75
2.43496e-75
-3.14456e-75
4.9687e-75
1.48e-74
-1.77483e-74
5.94243e-74
-8.5349e-74
1.64158e-73
-5.44299e-73
-1.9305e-74
-4.88754e-73
-2.80224e-73
-1.19105e-73
-7.65547e-73
-1.44218e-74
-5.72876e-73
6.74885e-73
6.12986e-74
-1.91182e-72
4.30228e-72
-4.95488e-72
6.11895e-72
-2.334e-71
9.43756e-72
-4.3728e-71
-5.82524e-71
3.47766e-71
-2.27284e-70
7.36301e-71
-2.43042e-70
2.06048e-70
-5.62871e-70
3.19907e-70
-5.87321e-70
6.44937e-70
-1.69609e-70
6.2339e-70
1.68148e-69
-8.92412e-70
3.74916e-69
-1.71845e-69
4.18096e-69
-4.80079e-69
9.02382e-69
-5.39266e-69
6.09756e-69
-4.93048e-69
5.26649e-70
-3.01748e-69
-1.18623e-68
2.58222e-69
-2.05484e-68
1.31429e-68
-4.76114e-68
2.06557e-68
-5.32156e-68
4.36087e-68
-4.43906e-68
3.36748e-68
-3.80269e-68
3.80821e-68
-6.18753e-69
7.21978e-68
-7.36342e-68
1.06378e-67
2.28518e-69
1.37906e-67
-7.17056e-68
1.48908e-67
-1.26219e-67
1.31201e-67
-8.99531e-70
2.36847e-67
1.78534e-67
1.00087e-67
2.18945e-67
9.22045e-68
1.66739e-67
8.9856e-68
1.04806e-66
-3.65324e-67
1.79793e-66
-5.63108e-67
7.66165e-67
-1.10124e-66
2.27088e-66
-1.05824e-66
2.88741e-66
-9.57149e-67
8.08908e-67
3.57013e-67
3.65312e-66
-7.9658e-67
3.85213e-66
-1.69699e-66
3.76819e-66
-2.41913e-66
3.96974e-66
-4.39073e-68
5.96311e-66
-2.52691e-66
1.07656e-65
-4.14109e-66
7.71572e-66
-5.04861e-66
1.59083e-65
-7.7528e-66
2.40395e-65
-1.48189e-65
2.6859e-65
-1.97605e-65
2.93344e-65
-2.3367e-65
3.43035e-65
-2.83574e-65
1.68696e-65
-2.65976e-65
2.34391e-65
-2.58229e-65
3.08153e-65
-2.53133e-65
2.70624e-65
-2.53798e-65
2.3745e-65
-2.51166e-65
2.60026e-65
-3.46819e-65
4.14428e-65
-4.33707e-65
5.20488e-65
-5.70493e-65
6.73789e-65
-7.40716e-65
8.77364e-65
-7.95634e-65
6.44953e-65
-7.76883e-65
6.09571e-65
-7.3395e-65
7.57194e-65
-6.97617e-65
3.61597e-65
-5.68881e-65
8.28392e-65
-6.57765e-65
7.26802e-65
-5.87404e-65
4.11548e-65
-4.79948e-65
3.55065e-65
-4.48304e-65
3.15031e-65
-3.55858e-65
1.25014e-65
-5.58446e-66
2.33961e-65
-1.78802e-66
5.00549e-67
9.61415e-66
-8.22017e-67
1.10085e-65
-5.83317e-66
2.83866e-65
-1.30739e-66
2.6055e-65
-8.64928e-66
2.56903e-65
-5.69186e-66
3.03251e-65
-1.36208e-65
2.80982e-65
-2.62077e-65
3.72561e-65
-2.50069e-65
3.5414e-65
-1.90389e-65
3.17692e-65
-1.67576e-65
3.03689e-65
-1.27781e-65
2.61721e-65
-1.63112e-65
2.61627e-65
-1.47697e-65
2.22711e-65
-1.78997e-65
2.03402e-65
-1.69959e-65
1.14367e-65
-1.66008e-65
1.08454e-65
-1.65617e-65
1.08959e-65
-8.21919e-66
3.76109e-66
-5.90755e-66
-6.56357e-67
-7.74372e-66
-4.68475e-67
-2.44687e-66
-3.63525e-66
4.44309e-66
-5.77142e-66
5.21405e-67
-6.62405e-66
3.38761e-66
-6.17353e-66
3.16709e-66
-6.69387e-66
2.99481e-66
-6.39339e-66
3.22381e-66
-6.03248e-66
2.62757e-66
-5.93325e-66
1.74889e-66
-5.94205e-66
2.10953e-66
-5.40367e-66
1.82098e-66
-4.24367e-66
1.73959e-66
-3.43646e-66
2.56151e-66
-3.15642e-66
1.51337e-66
-2.51541e-66
7.95649e-67
-1.68112e-66
1.00857e-66
-9.13047e-67
1.02239e-66
-8.63625e-66
-1.74988e-65
-1.21541e-64
7.02177e-65
4.1318e-62
3.42345e-64
-6.23873e-60
-4.71174e-60
-1.37573e-59
2.33295e-58
-3.29276e-56
1.52729e-57
6.41537e-55
9.33994e-55
-3.90924e-53
-3.87919e-54
2.98856e-51
8.7846e-52
-4.82243e-50
-5.5361e-50
1.99862e-49
9.10672e-49
-4.38023e-50
9.31257e-49
9.56562e-49
2.27938e-48
-1.96996e-47
-2.41076e-47
1.18202e-44
7.83159e-47
-2.71724e-43
-1.75027e-43
-4.52744e-42
3.85157e-42
7.65612e-41
6.97174e-41
-7.83036e-41
-3.51207e-40
5.38834e-40
-3.96013e-39
-2.34516e-40
6.54219e-13
1.75908e-11
-5.87597e-12
3.50227e-12
-4.93173e-14
-4.61407e-14
1.17788e-15
-4.55875e-16
2.89066e-15
8.047e-12
1.95622e-12
1.57158e-11
-3.81113e-15
-1.31389e-14
-2.62742e-10
5.83143e-09
7.63976e-08
2.9455e-07
6.17622e-07
8.64464e-07
9.50738e-07
9.65338e-07
9.55151e-07
9.50358e-07
9.38481e-07
8.94131e-07
7.77977e-07
5.78946e-07
3.60959e-07
1.88141e-07
7.88224e-08
2.70504e-08
6.9977e-09
1.24528e-09
1.17454e-10
-1.41323e-11
-7.43397e-12
-8.77311e-13
7.74344e-14
1.33264e-14
-1.57055e-15
-2.0127e-17
1.53768e-17
-1.44372e-18
6.326e-20
-7.48008e-22
-7.92646e-23
8.13129e-24
-4.33339e-25
1.30587e-26
1.08231e-28
-4.0323e-29
2.25325e-30
-5.19128e-32
-3.17913e-34
3.72318e-35
-1.12531e-38
4.98684e-38
1.20487e-37
-1.02676e-38
2.12387e-11
6.2981e-12
9.576e-11
-2.78415e-11
4.81403e-11
2.8932e-11
-2.55486e-12
2.02731e-11
1.2086e-11
-5.44029e-12
2.63874e-11
2.04817e-11
4.18244e-11
2.95034e-11
1.36428e-11
4.01379e-11
-7.5059e-11
-1.59344e-11
-6.2097e-11
-5.14015e-11
-4.34594e-11
-4.25801e-11
2.26537e-11
-1.29177e-11
1.67695e-11
5.19742e-11
-5.43083e-11
1.36538e-10
3.89686e-11
2.04653e-11
9.72211e-11
1.01528e-10
7.15758e-11
3.06277e-10
4.12967e-10
3.00892e-10
-2.51632e-10
8.25188e-10
-1.42978e-09
-1.03304e-08
6.11943e-09
-5.64655e-09
1.43834e-09
1.25439e-08
-6.17792e-09
-1.12385e-08
-3.87143e-09
-7.19943e-09
1.56518e-10
9.33908e-10
6.20327e-09
3.69915e-09
-9.54827e-09
-4.86182e-09
3.15782e-09
-4.80838e-09
7.58099e-09
1.1745e-08
-1.30655e-08
-7.56301e-09
3.2394e-09
-8.62657e-09
5.25875e-09
9.44826e-09
-6.29735e-09
-2.67255e-09
1.39731e-09
-2.60099e-09
-1.91928e-09
-1.05511e-09
-1.25699e-09
-4.00709e-09
4.64651e-10
-5.31905e-10
2.19978e-10
0
1.12152e-12
2.61867e-11
3.92536e-12
1.26675e-11
-2.13094e-11
-1.74503e-10
1.18409e-10
5.09039e-10
-1.34075e-10
-7.32934e-12
1.15836e-11
-1.07568e-11
4.86554e-12
1.40751e-12
-4.43057e-12
1.97987e-12
-1.37684e-12
4.81735e-12
1.38243e-12
-1.01422e-11
7.84669e-12
-5.14459e-12
4.39833e-12
0
-1.64052e-42
0
-4.54848e-11
-5.7736e-11
8.81021e-12
2.99828e-09
-6.66704e-09
2.64527e-09
-3.87163e-12
-5.10453e-12
-2.52217e-10
8.62332e-11
-8.66587e-12
4.05303e-12
-1.47536e-18
5.59974e-39
-6.77092e-39
4.39177e-17
6.38583e-16
-1.34098e-36
2.84686e-17
-7.17528e-32
-1.90456e-28
-2.14223e-26
7.48605e-26
3.19928e-26
-1.78758e-23
4.80393e-23
-8.6524e-23
-4.12278e-23
-1.50641e-22
-4.70267e-23
-7.79338e-23
-1.182e-22
-1.04808e-22
-1.0812e-22
-9.77028e-23
-9.73512e-22
5.59359e-21
-1.70194e-20
-2.56627e-20
-9.59124e-20
-5.19152e-20
2.16554e-20
-1.32327e-19
-2.73995e-19
-4.69589e-19
-1.2802e-19
-1.76404e-19
-5.74281e-19
-7.55056e-19
-4.74889e-19
5.45496e-20
5.50719e-19
7.82558e-19
3.36918e-19
9.81262e-19
2.27944e-18
5.04665e-19
9.26594e-19
1.23281e-18
-2.41188e-18
-3.3008e-18
-6.38029e-18
-1.79773e-18
-1.71647e-18
6.84844e-18
1.88127e-17
2.55123e-17
2.80797e-17
2.2884e-17
1.3072e-17
-9.71388e-18
-1.21852e-17
-3.53971e-17
-3.78291e-17
-3.26993e-17
-2.658e-17
-2.09784e-17
-8.72696e-18
2.67834e-18
9.92714e-18
1.38158e-17
1.6962e-17
1.36963e-17
1.02464e-17
8.08828e-18
3.98941e-18
1.96192e-18
4.97171e-19
-8.05475e-19
-1.4187e-18
-1.44606e-18
-1.3955e-18
-9.19793e-19
-6.68618e-19
-5.77834e-19
-3.559e-19
-1.9794e-19
-7.81249e-20
-8.98343e-21
2.77241e-20
3.52701e-20
4.76762e-20
4.97942e-20
3.93887e-20
2.97183e-20
1.98295e-20
1.01718e-20
9.15143e-21
4.49019e-21
3.39625e-21
1.84939e-21
7.90052e-22
9.65314e-21
2.15823e-19
1.10831e-25
2.44181e-26
7.94976e-29
2.85787e-33
-1.30049e-09
-7.31259e-11
3.61378e-10
2.70719e-08
1.63685e-07
4.56837e-07
7.59177e-07
9.23143e-07
9.60409e-07
9.61167e-07
9.52907e-07
9.47286e-07
9.24187e-07
8.48909e-07
6.8418e-07
4.68783e-07
2.66456e-07
1.25754e-07
4.7503e-08
1.44269e-08
3.12649e-09
4.31655e-10
1.18548e-11
-1.33364e-11
-3.05691e-12
-9.15733e-14
4.93296e-14
-1.60688e-16
-5.45856e-16
4.82131e-17
-2.03035e-19
-2.45824e-19
2.69383e-20
-1.89268e-21
9.77457e-23
-4.80325e-24
2.10407e-25
-9.41839e-27
3.4916e-28
-7.17381e-30
-7.56533e-32
9.55131e-33
-1.75487e-34
-3.52128e-36
0
-7.46247e-13
-3.88433e-10
-1.91605e-09
-1.13303e-12
0
-1.41729e-11
-7.2484e-12
-3.1312e-11
6.03469e-11
2.52343e-11
-2.5493e-11
-5.74373e-12
-6.10735e-10
-1.82676e-10
-1.13425e-13
6.40512e-14
-3.11969e-12
2.41424e-12
9.14115e-13
-2.44134e-12
-3.64732e-13
-7.08883e-12
1.09904e-11
-8.01975e-12
1.58318e-12
1.88079e-14
-3.29288e-13
0
3.62301e-23
1.52592e-30
2.3398e-12
1.2541e-12
-3.19269e-12
8.82162e-12
1.21762e-12
1.83579e-10
-2.56545e-10
-1.0487e-10
2.57984e-11
-3.77537e-11
-3.48095e-11
-1.76011e-37
7.53739e-35
-7.11444e-35
-1.19463e-31
4.36825e-30
-5.46915e-29
-7.30816e-28
5.03658e-26
-1.34895e-24
2.68855e-23
-3.93799e-22
2.83589e-21
6.85402e-20
-2.33776e-18
3.06177e-17
-1.31864e-16
-2.18514e-15
2.71913e-14
8.05565e-14
-1.65217e-12
-1.13472e-11
-1.27669e-11
2.19604e-10
2.01995e-09
1.05741e-08
3.82919e-08
1.07294e-07
2.43507e-07
4.52446e-07
6.90022e-07
8.92579e-07
9.98641e-07
1.03124e-06
1.03961e-06
1.0468e-06
1.05055e-06
1.02907e-06
8.99171e-07
5.89749e-07
2.39616e-07
-1.6213e-18
-7.90486e-20
4.77509e-22
-3.9127e-22
-1.32232e-22
-1.99634e-22
-1.18372e-21
-4.37596e-21
-3.25053e-21
6.05443e-22
-1.24689e-20
-1.18125e-20
-1.81974e-20
-3.47576e-20
-7.52644e-20
-8.42711e-20
-1.20507e-19
-1.21426e-19
-7.90694e-20
-3.16535e-20
1.51374e-19
1.02619e-19
2.49559e-19
9.67211e-19
1.53927e-18
1.51818e-18
2.04955e-18
3.06518e-18
3.14777e-18
3.84107e-18
9.45186e-19
-2.59955e-18
-5.73385e-18
-9.60389e-18
-1.91864e-17
-3.20409e-17
-3.682e-17
-2.89097e-17
-1.70855e-17
8.39505e-19
1.73516e-17
3.6471e-17
5.2596e-17
8.54586e-17
6.64487e-17
6.00036e-17
1.74563e-17
-1.66362e-17
-1.88951e-17
-5.53971e-17
-3.62736e-17
-3.223e-17
-2.27119e-17
-8.28765e-18
6.54538e-18
-5.70101e-19
-1.20922e-19
3.47542e-18
-4.27477e-18
-2.65257e-18
-1.02855e-18
2.23715e-22
1.4014e-23
-4.06042e-18
-3.51875e-18
-2.20565e-18
-1.75819e-18
-6.21004e-19
3.05093e-19
2.41703e-19
-2.50171e-19
7.50168e-19
1.35152e-18
8.89822e-19
3.51568e-20
-8.55012e-20
8.93335e-20
9.02359e-20
1.244e-20
-1.06474e-20
3.62651e-21
5.6414e-22
3.42738e-22
2.14087e-22
2.28049e-22
1.94477e-22
1.40933e-22
9.39059e-23
3.3124e-12
-3.41451e-12
4.32331e-12
-4.91594e-12
2.34063e-13
4.4853e-12
5.94813e-13
-3.54382e-11
2.3979e-10
3.4727e-10
-2.40439e-12
5.95566e-11
3.93048e-11
-4.23032e-12
-6.37413e-36
-4.30903e-34
1.78183e-32
1.18039e-32
-1.92945e-29
7.29387e-28
-1.81228e-26
3.58533e-25
-8.13649e-24
1.70327e-22
-3.41836e-21
5.40018e-20
-6.13387e-19
2.43874e-18
6.80804e-17
-1.0531e-15
2.35608e-15
7.83079e-14
-2.97891e-13
-5.10422e-12
-1.76478e-11
3.96942e-11
7.41187e-10
4.86099e-09
2.09e-08
6.61272e-08
1.67621e-07
3.39247e-07
5.71667e-07
7.99748e-07
9.54741e-07
1.02023e-06
1.03516e-06
1.04262e-06
1.0512e-06
1.04604e-06
9.85904e-07
7.57922e-07
4.03738e-07
0
9.58896e-12
-1.06462e-19
1.39001e-20
8.62554e-22
-4.55647e-22
-8.21621e-23
-2.3197e-21
-2.21863e-21
-7.67127e-21
-5.04031e-21
-9.12871e-21
-5.59733e-21
-1.75592e-20
-4.08465e-20
-8.14291e-20
-8.88539e-20
-8.97952e-20
-1.07548e-19
-1.20655e-19
-1.98815e-19
-2.08794e-21
3.04376e-19
4.65416e-19
5.02827e-19
6.90169e-19
1.72074e-18
2.30261e-18
3.46466e-18
3.62607e-18
2.90818e-18
3.18331e-18
3.19471e-20
-7.09252e-19
-9.1301e-18
-1.68765e-17
-1.52436e-17
-2.75665e-17
-3.18823e-17
-2.43676e-17
-8.13895e-19
1.30394e-17
3.83677e-17
5.06441e-17
8.35847e-17
6.38759e-17
4.86457e-17
3.29195e-17
4.87932e-18
-2.36232e-17
-2.81212e-17
-4.48041e-17
-4.13742e-17
-2.42062e-17
-1.8916e-17
-5.60885e-18
-4.68983e-18
3.54263e-18
3.35165e-18
1.22153e-18
5.0075e-18
4.05712e-19
1.13917e-18
-1.46734e-18
-1.23308e-18
-1.09406e-18
-1.24613e-18
-1.40143e-18
-1.23637e-18
-2.9656e-20
-2.88828e-19
-1.40798e-18
-9.65034e-19
-2.56718e-19
3.2409e-19
-4.30405e-20
-1.20473e-19
-8.95277e-20
4.71242e-20
-1.6319e-21
3.21088e-23
6.32683e-22
4.98455e-23
4.09761e-22
1.85542e-22
1.94039e-22
3.05518e-22
3.19609e-22
2.40762e-23
-4.26327e-23
-2.42266e-22
-1.12118e-23
-6.69804e-24
6.3586e-25
-3.22853e-24
-5.02661e-25
2.67981e-27
3.64455e-25
4.84054e-08
1.46818e-09
-1.71637e-10
-3.33862e-10
1.24752e-08
1.20528e-07
-1.09343e-11
3.92741e-11
1.92322e-11
1.74356e-13
3.1858e-12
-3.66394e-12
-2.25524e-13
0
0
0
0
0
0
0
0
0
0
0
0
0
0
0
0
0
0
0
0
0
0
0
0
0
0
0
0
0
0
0
0
0
0
0
0
0
0
0
0
0
0
0
0
0
0
0
0
0
0
1.33946e-32
5.82166e-32
1.12476e-30
4.88635e-31
-1.05355e-30
1.73288e-30
-3.45535e-29
4.76755e-30
-1.57274e-28
8.30676e-30
-4.1774e-28
1.09392e-29
-6.71775e-28
1.12124e-29
-7.98325e-28
8.34192e-30
-6.88736e-28
4.47635e-30
-4.08324e-28
1.89765e-30
-1.80658e-28
6.27077e-31
-6.56248e-29
1.70676e-31
-1.90442e-29
3.12875e-32
-4.05205e-30
2.65643e-33
-2.50215e-31
0
4.30068e-32
0
0
0
0
0
0
0
0
0
0
0
0
0
0
0
0
0
0
0
0
0
0
0
0
0
0
0
0
0
0
0
0
0
0
0
0
0
0
0
0
0
0
0
0
0
0
0
0
0
0
0
0
0
0
0
0
0
0
0
0
0
0
0
0
0
0
0
0
0
0
0
0
0
0
0
0
0
0
0
0
0
0
0
0
0
0
0
0
0
0
0
0
0
0
0
0
0
0
0
0
0
0
0
0
0
0
0
0
0
-3.108e-16
7.69747e-16
5.51821e-08
-9.83133e-13
8.86213e-32
1.6707e-24
1.57785e-27
2.82406e-25
4.26267e-26
-3.60611e-25
-6.2779e-24
-1.58178e-24
3.04545e-23
2.37156e-21
-2.40235e-17
-1.30708e-22
-1.66118e-21
3.44462e-29
-4.11868e-28