/*--------------------------------*- C++ -*----------------------------------*\
  =========                 |
  \\      /  F ield         | OpenFOAM: The Open Source CFD Toolbox
   \\    /   O peration     | Website:  https://openfoam.org
    \\  /    A nd           | Version:  7
     \\/     M anipulation  |
\*---------------------------------------------------------------------------*/
FoamFile
{
    version     2.0;
    format      ascii;
    class       volScalarField;
    location    "0.16";
    object      T;
}
// * * * * * * * * * * * * * * * * * * * * * * * * * * * * * * * * * * * * * //

dimensions      [0 0 0 1 0 0 0];

internalField   nonuniform List<scalar> 
45544
(
0
0
0
0
0
0
0
0
0
0
0
0
0
0
0
0
0
0
0
0
0
0
0
0
0
0
0
0
0
0
0
0
0
0
0
0
0
0
0
0
0
0
0
0
0
0
0
0
0
0
0
0
0
0
0
0
0
0
0
0
0
0
0
0
0
0
0
0
0
0
0
0
0
0
0
0
0
0
0
0
0
0
0
0
0
0
0
0
0
0
0
0
0
0
0
0
0
0
0
0
0
0
0
0
0
0
0
0
0
0
0
0
0
0
0
0
0
0
0
0
0
0
0
0
0
0
0
0
0
0
0
0
0
0
0
0
0
0
0
0
0
0
0
0
0
0
0
0
0
0
0
0
0
0
0
0
0
0
0
0
0
0
0
0
0
0
0
0
0
0
0
0
0
0
0
0
0
0
0
0
0
0
0
0
0
0
0
0
0
0
0
0
0
0
0
0
0
0
0
0
0
0
0
0
0
0
0
0
0
0
0
0
0
0
1.59068e-42
-4.12332e-40
2.55398e-38
7.79741e-36
4.1681e-35
1.34714e-34
2.64534e-35
4.00895e-32
4.04003e-32
4.01911e-32
8.16519e-32
4.59471e-32
5.35022e-31
-9.62801e-30
-4.42644e-29
-2.34766e-28
-4.3321e-28
-7.19443e-28
-3.36493e-27
-3.13007e-26
-7.70799e-26
-1.44242e-25
-1.05982e-25
-1.45854e-25
-1.03475e-25
-9.98306e-26
-8.974e-26
-6.28267e-26
-4.02434e-26
-3.00804e-26
-1.76443e-26
-1.00566e-26
-5.4477e-27
-2.7616e-27
-1.41925e-27
-7.54296e-28
-3.05334e-28
-1.73212e-29
-8.75522e-30
3.65844e-29
2.12796e-29
1.27633e-29
1.02139e-29
5.80073e-30
2.9408e-30
2.61537e-30
1.20156e-30
5.88824e-31
3.32174e-31
1.75959e-31
1.00941e-31
4.9924e-32
2.24298e-32
9.92726e-33
4.34555e-33
1.25816e-33
6.45538e-34
1.88974e-34
2.9144e-35
1.2459e-35
1.98561e-36
-9.04468e-36
-5.10647e-36
-2.50913e-36
-1.39327e-36
-8.10484e-37
-6.57771e-37
-2.75069e-37
-1.25924e-37
-6.22137e-38
-2.63886e-38
-1.21651e-38
-5.13799e-39
-1.82221e-39
-8.44865e-40
-3.68551e-40
-1.46522e-40
-5.72155e-41
-2.10326e-41
-7.38232e-42
-2.94404e-42
-9.98536e-43
-3.7716e-43
-1.28249e-43
1.36084e-43
0
0
0
0
0
0
0
0
0
0
0
0
0
0
0
0
0
0
0
0
0
0
0
0
0
0
0
0
0
0
0
0
0
0
0
0
0
0
0
0
0
0
0
0
0
0
0
0
0
0
0
0
0
0
0
0
0
0
0
0
0
0
0
0
0
0
0
0
0
0
0
0
0
0
0
0
0
0
0
0
0
0
0
0
0
0
0
0
0
0
0
0
0
0
0
0
0
0
0
0
0
0
0
0
0
0
0
0
0
0
0
0
0
0
0
0
0
0
0
0
0
0
0
0
0
0
0
0
0
0
0
0
1.69647e-126
2.12058e-126
4.59213e-126
5.74016e-126
2.92424e-126
3.6553e-126
2.25801e-126
1.01122e-126
8.60181e-124
1.07346e-123
9.15687e-124
1.1423e-123
1.92921e-122
2.40291e-122
2.79881e-122
1.49551e-122
1.58095e-119
1.93545e-119
1.00597e-119
1.2305e-119
6.7924e-120
6.54866e-120
2.63799e-119
3.17878e-119
1.73017e-119
1.93186e-119
7.40766e-116
-4.31317e-119
2.08434e-112
2.59018e-112
1.3222e-112
1.63882e-112
8.8244e-112
-2.62802e-111
2.97781e-109
3.65179e-109
3.51301e-109
4.33375e-109
7.85835e-108
9.64246e-108
5.09118e-108
5.92321e-108
8.4737e-107
1.05671e-106
6.24556e-107
7.5773e-107
2.37697e-106
2.94971e-106
1.48184e-106
1.83781e-106
1.15153e-106
1.43091e-106
7.57978e-108
8.00493e-108
1.10979e-106
1.33967e-106
2.27279e-105
2.63053e-105
1.23504e-103
1.49425e-103
8.09155e-104
9.80188e-104
5.84065e-104
6.31318e-104
3.3874e-102
3.78846e-102
8.85e-102
1.07048e-101
5.59217e-102
6.66379e-102
2.67739e-101
-7.48752e-101
7.7854e-100
8.26801e-100
5.97821e-100
6.09319e-100
4.0366e-100
4.00051e-100
3.46268e-100
2.62869e-101
1.03279e-98
1.14375e-98
1.15459e-97
1.23681e-97
7.40419e-98
7.90377e-98
4.98729e-98
5.40614e-98
3.13024e-98
3.30197e-98
2.76317e-97
2.96176e-97
5.95743e-97
7.1015e-97
3.6241e-97
4.29596e-97
2.30219e-97
2.36417e-97
3.9036e-97
4.34085e-97
3.89048e-97
4.52188e-97
4.55456e-97
4.94681e-97
2.76837e-97
2.05845e-97
3.74869e-97
3.92377e-97
8.73998e-97
7.804e-97
5.44026e-97
4.95813e-97
9.18583e-97
1.04516e-96
5.81241e-97
6.63311e-97
3.87589e-97
4.1471e-97
1.74285e-96
2.08285e-96
1.03007e-96
1.22222e-96
8.75031e-97
-2.67662e-97
6.54961e-96
6.4362e-96
7.71443e-96
8.47685e-96
1.0642e-95
1.07002e-95
7.81138e-96
4.31892e-96
1.05078e-95
9.41091e-96
8.73549e-96
1.73598e-97
1.8277e-95
1.62918e-95
1.82347e-95
1.88197e-95
1.23459e-95
1.24478e-95
1.20473e-95
1.31217e-95
1.05622e-95
1.19665e-95
6.93019e-96
5.92344e-96
1.41712e-95
1.62464e-95
8.02592e-96
8.78892e-96
4.57944e-96
5.00385e-96
7.97861e-96
8.51836e-96
1.19366e-95
1.40808e-95
7.0731e-96
8.32333e-96
3.88789e-96
4.34953e-96
3.17559e-96
3.65729e-96
2.48437e-96
2.91747e-96
2.3341e-96
2.64178e-96
1.4423e-96
1.50736e-96
9.17354e-97
9.70207e-97
5.60194e-97
5.50614e-97
3.13196e-97
3.0136e-97
5.79173e-97
6.54687e-97
3.53547e-97
3.98133e-97
6.80495e-97
7.39925e-97
1.08175e-96
1.27791e-96
6.04895e-97
7.07789e-97
3.90599e-97
3.874e-97
6.25372e-97
6.67552e-97
6.05094e-97
6.8465e-97
5.57807e-97
5.6566e-97
4.03437e-97
2.91202e-97
1.78656e-96
2.0513e-96
1.13689e-96
1.30674e-96
1.2219e-96
1.38083e-96
1.13645e-96
1.32916e-96
7.00141e-97
8.19206e-97
4.50229e-97
4.94047e-97
1.15464e-96
1.37068e-96
6.43898e-97
7.62681e-97
3.81418e-97
3.87301e-97
4.12692e-97
4.53426e-97
3.32485e-97
3.80744e-97
2.25195e-97
2.59207e-97
1.33083e-97
1.5e-97
1.77257e-97
2.13153e-97
1.0196e-97
1.18087e-97
8.08782e-98
9.46087e-98
5.09001e-98
6.01328e-98
3.22591e-98
3.82551e-98
1.83467e-98
2.1682e-98
1.51077e-98
1.81894e-98
1.3452e-98
1.57783e-98
7.40994e-99
8.66014e-99
4.25233e-99
4.96526e-99
2.19211e-99
2.56316e-99
2.17085e-99
2.52887e-99
2.2743e-99
2.75038e-99
1.25107e-99
1.51245e-99
-2.36479e-99
8.43566e-100
-1.82148e-94
-2.27312e-94
-2.51664e-91
-1.67057e-91
-9.55759e-88
-1.19057e-87
-6.24033e-88
-7.31156e-88
-1.54119e-86
7.2718e-86
-1.36173e-85
4.20571e-86
-6.11431e-81
1.24145e-39
2.99909e-37
-4.62413e-34
7.67202e-32
6.44721e-30
1.87522e-28
2.6717e-27
1.93613e-26
8.0291e-26
2.27525e-25
4.20767e-25
6.12163e-25
8.19519e-25
1.023e-24
1.23134e-24
1.48992e-24
1.90937e-24
2.30075e-24
2.43085e-24
2.22809e-24
1.75812e-24
1.1948e-24
7.14279e-25
3.98252e-25
1.97076e-25
8.72143e-26
3.59858e-26
1.28934e-26
3.65887e-27
7.90511e-28
1.19423e-28
1.22687e-29
7.81802e-31
2.95965e-32
2.0051e-34
-2.50777e-35
-4.2395e-37
5.18307e-39
1.37293e-41
-4.47741e-43
-1.7676e-45
-6.07275e-47
-5.14817e-50
-6.33707e-54
2.3803e-57
-1.21499e-61
-5.66975e-65
-3.05271e-70
-2.48655e-75
-0.00171513
0.00315046
0.000336641
0.00111351
0.0022399
-0.00288231
-0.00107112
-0.0059946
-0.0051157
-0.00536638
-0.00833341
0.00119623
-0.00867372
0.0137662
-0.0044494
0.0326581
0.00223316
0.0533664
0.0121377
0.0769851
0.0214321
0.0999918
0.0320178
0.119267
0.0393397
0.135978
0.0423752
0.147304
0.043382
0.156635
0.0403269
0.15986
0.0365454
0.162199
0.0272577
0.166794
0.0176783
0.165973
0.0114889
0.723706
0.830712
0.83706
0.791736
0.829602
0.79251
0.804856
0.794601
0.809088
0.796561
0.810411
0.795614
0.811008
0.793238
0.809439
0.793311
0.808133
0.794737
0.809018
0.796285
0.810719
0.796287
0.811285
0.795392
0.810578
0.794104
0.809684
0.793849
0.809139
0.794053
0.808846
0.795293
0.809353
0.796282
0.811435
0.792722
0.805729
0.793062
0.849577
0.000226783
0.000230493
-0.00602347
0.00359232
0.0399728
0.0891832
0.133487
0.163331
0.172657
0.170523
0.00133308
0.00132484
0.00135806
0.0013665
0.00132424
0.00130516
0.00136272
0.0013232
0.00122924
0.00109161
9.623e-43
0
0
0
0
0
0
0
0
0
0
0
0
0
0
0
-5.15684e-42
3.20351e-40
3.37086e-38
3.73838e-35
3.87449e-35
8.52062e-35
1.04776e-33
3.23373e-32
3.06695e-32
3.89404e-32
6.25138e-32
1.24269e-32
-2.33917e-30
-1.2719e-29
-5.59513e-29
-2.65424e-28
-4.35292e-28
-2.22547e-27
-8.49044e-27
-4.74492e-26
-9.0503e-26
-1.18712e-25
-9.64386e-26
-1.28476e-25
-9.39155e-26
-8.94238e-26
-7.4378e-26
-4.81674e-26
-3.42829e-26
-2.33045e-26
-1.31507e-26
-7.44974e-27
-3.92671e-27
-2.006e-27
-1.01393e-27
-4.63795e-28
-2.0981e-28
-1.19078e-29
-5.69196e-30
3.30757e-29
1.4236e-29
9.20518e-30
7.14558e-30
4.01317e-30
2.22829e-30
1.80653e-30
8.21814e-31
4.3573e-31
2.53581e-31
1.26545e-31
7.00371e-32
3.36557e-32
1.59912e-32
6.45635e-33
3.03045e-33
7.5571e-34
4.4242e-34
1.31824e-34
2.73706e-35
7.93362e-36
1.83951e-36
-7.63926e-36
-3.45744e-36
-1.92188e-36
-1.2513e-36
-5.42472e-37
-4.14142e-37
-2.00059e-37
-8.11056e-38
-4.014e-38
-1.65929e-38
-7.65367e-39
-3.12628e-39
-1.14956e-39
-5.29191e-40
-2.23492e-40
-9.05207e-41
-3.65836e-41
-1.28327e-41
-4.58675e-42
-1.82432e-42
-6.05474e-43
-2.24633e-43
0
-1.11263e-43
0
1.82258e-39
-9.19266e-38
-7.64275e-81
-1.83148e-37
7.93937e-36
-1.34243e-34
7.63895e-31
3.93036e-29
7.75584e-28
7.57442e-27
4.19787e-26
1.41169e-25
3.20567e-25
5.15825e-25
7.11649e-25
9.2223e-25
1.12635e-24
1.33947e-24
1.68583e-24
2.11849e-24
2.39989e-24
2.36998e-24
2.0181e-24
1.47864e-24
9.42528e-25
5.41156e-25
2.84165e-25
1.33338e-25
5.68815e-26
2.2185e-26
7.18546e-27
1.76298e-27
3.33877e-28
4.03739e-29
3.25481e-30
1.69249e-31
4.10428e-33
-6.83995e-35
-4.38166e-36
5.58899e-39
6.39666e-40
-3.70197e-42
-4.56826e-46
-7.93903e-46
-1.46854e-48
4.11157e-52
-5.54842e-56
7.22915e-59
-6.76709e-63
-1.87167e-67
-5.53539e-73
-0.000684231
-8.9641e-78
-0.0324549
0.276818
0.377948
0.00234557
-0.0037289
-0.00452089
0.0194592
0.0631706
0.110808
0.149616
0.170408
0.176708
0.000282995
0.168237
0.00127129
0.00146038
0.00139078
0.00133763
0.00131336
0.00135142
0.00134493
0.00130948
0.00153947
-0.000186484
0
0
0
0
0
0
0
0
0
0
0
0
0
0
-5.49895e-42
-4.6633e-39
-1.47696e-37
1.32075e-35
-1.23361e-35
9.67637e-35
-9.79572e-34
9.37665e-34
8.78952e-33
-2.56513e-32
2.34294e-32
4.79508e-32
9.72516e-30
1.76856e-29
9.7421e-29
2.19542e-28
4.32835e-28
7.11977e-27
3.26195e-26
6.60401e-26
8.62369e-26
1.85345e-26
2.42081e-26
-1.47847e-26
4.08295e-26
4.10242e-26
-1.34142e-27
3.12632e-27
6.58144e-27
-3.49467e-27
-1.48189e-27
-8.20008e-28
-6.46089e-28
-2.66388e-28
-8.83347e-29
-6.91525e-29
-7.19714e-29
7.69859e-29
2.28539e-29
4.93202e-29
1.87729e-29
8.62011e-30
7.6718e-30
3.93344e-30
9.80327e-31
1.29513e-30
5.87495e-31
2.70975e-31
1.8637e-31
6.72712e-32
4.36678e-32
2.25185e-32
8.6437e-33
3.12974e-33
1.51822e-33
-1.30008e-34
9.79111e-35
-2.9542e-35
-5.09404e-35
-2.35044e-35
-5.8612e-36
-1.31229e-35
-4.47481e-36
-2.20139e-36
-1.54743e-36
-5.53878e-37
-4.72323e-37
-2.26436e-37
-8.39596e-38
-4.39901e-38
-1.76595e-38
-8.59662e-39
-3.66035e-39
-1.22934e-39
-5.96682e-40
-2.5338e-40
-9.97115e-41
-4.17238e-41
-1.44795e-41
-5.26493e-42
-2.13038e-42
-6.46886e-43
-2.43722e-43
-6.66142e-44
-1.06507e-33
1.81803e-31
1.37576e-29
3.8808e-28
4.87998e-27
3.28895e-26
1.25998e-25
3.28044e-25
5.64822e-25
7.92665e-25
1.04496e-24
1.29319e-24
1.53483e-24
1.89784e-24
2.42345e-24
2.85269e-24
2.90641e-24
2.56241e-24
1.94075e-24
1.27447e-24
7.41603e-25
4.02728e-25
1.91645e-25
8.25317e-26
3.31403e-26
1.12551e-26
2.91017e-27
5.76552e-28
7.34423e-29
6.44931e-30
3.44169e-31
9.59401e-33
-1.0287e-34
-9.40004e-36
-6.9916e-39
1.45277e-39
-6.89761e-42
-6.29024e-46
-1.60743e-45
-3.1463e-48
9.40845e-52
-1.3632e-55
1.72532e-58
-1.53777e-62
-4.24669e-67
-1.35053e-72
-3.04142e-77
-0.000694722
-0.00134871
-0.00779326
-0.00202206
0.0169132
0.0368249
0.0474534
0.0434324
0.0274821
0.016498
0.00108231
0.000782911
0.000737753
0.00078552
0.000714866
0.000743581
0.000769557
0.000823697
0.000747569
0.000714154
0
0
0
0
0
0
0
0
0
0
0
0
0
2.00489e-42
1.86788e-39
-1.13871e-37
-3.30065e-35
-3.83843e-35
1.31299e-34
4.03474e-35
6.16809e-33
1.79274e-32
-6.89097e-33
3.49235e-32
6.60063e-32
-1.24169e-30
7.3849e-30
6.19066e-29
1.33959e-28
1.45722e-30
2.19638e-27
9.87439e-27
8.69397e-26
1.17682e-25
-3.25421e-27
4.02474e-26
-4.53872e-27
1.97324e-26
5.28631e-26
5.67626e-27
-2.81601e-28
1.10619e-26
-3.35547e-27
-2.46285e-27
-6.01869e-28
-6.8608e-28
-2.83221e-28
-1.99016e-28
-1.60798e-28
-7.74811e-29
1.05008e-28
3.64366e-29
5.47855e-29
3.24242e-29
1.21957e-29
1.1083e-29
5.55621e-30
1.45447e-30
1.90581e-30
8.52502e-31
3.26854e-31
2.14941e-31
1.0584e-31
6.72705e-32
3.26549e-32
1.2884e-32
5.41063e-33
2.06654e-33
1.15266e-34
5.17012e-35
-4.42055e-35
-8.89711e-35
-3.4552e-35
-1.05969e-35
-1.63417e-35
-6.60662e-36
-2.73705e-36
-1.60707e-36
-9.09607e-37
-7.51421e-37
-3.01755e-37
-1.29871e-37
-6.7819e-38
-2.80354e-38
-1.35136e-38
-5.93286e-39
-1.99207e-39
-9.45902e-40
-4.14557e-40
-1.60821e-40
-6.39856e-41
-2.33979e-41
-8.40335e-42
-3.35377e-42
-1.11823e-42
-4.09711e-43
-1.3924e-43
8.23867e-29
1.52325e-27
1.34844e-26
6.77359e-26
2.15346e-25
4.4753e-25
6.78434e-25
9.21974e-25
1.17497e-24
1.41141e-24
1.68992e-24
2.15043e-24
2.67284e-24
2.9298e-24
2.78116e-24
2.26995e-24
1.60316e-24
9.79253e-25
5.54239e-25
2.79793e-25
1.27115e-25
5.34447e-26
1.99489e-26
5.87159e-27
1.33756e-27
2.12388e-28
2.33487e-29
1.58009e-30
6.41728e-32
6.62167e-34
-5.12361e-35
-1.06198e-36
1.02092e-38
4.79675e-41
-1.04126e-42
-2.34759e-45
-1.38229e-46
-1.18888e-49
-1.42796e-53
5.2951e-57
-2.1539e-61
-1.31537e-64
-7.17285e-70
-7.1851e-75
-3.5854e-80
0.00158327
-0.00519156
-0.00688163
0.00686137
0.028015
0.0442776
0.0485589
0.0370993
0.0241731
-0.01256
0.000740445
0.000734108
0.000763926
0.0007529
0.00071627
0.000740648
0.000770101
0.000838776
0.00100924
-0.000477551
0
7.68154e-37
1.73272e-30
1.67576e-33
1.48392e-35
0.00161941
0
0
0
0
0
0
0
0
0
0
0
0
0
0
0
0
0
0
0
0
0
0
0
0
0
0
0
0
0
0
0
0
0
0
0
0
0
0
0
0
0
0
0
0
0
0
0
0
0
0
0
0
0
0
0
0
0
0
0
0
0
0
0
0
0
0
0
0
0
0
0
0
0
0
0
0
0
0
0
0
0
0
0
0
0
0
0
0
0
0
0
0
0
0
0
0
0
0
0
0
0
0
0
0
0
0
0
0
0
0
0
0
0
0
0
0
0
0
0
0
0
0
0
0
0
0
0
0
0
0
0
0
0
0
0
0
0
0
0
0
0
0
0
0
0
0
0
0
0
0
0
0
0
0
0
0
0
0
0
0
0
0
0
0
0
0
0
0
0
0
0
0
0
0
0
0
0
0
0
0
0
0
0
0
0
0
0
0
0
0
0
0
0
0
0
0
8.86226e-37
-2.19061e-37
-4.9419e-37
-1.26619e-33
0
0
0
0
0
0
0
0
0
0
0
6.88208e-42
-5.60467e-39
2.25566e-36
1.09399e-34
4.92151e-33
8.15888e-33
3.34648e-33
5.45901e-32
1.79291e-30
1.68003e-30
4.25644e-30
3.10897e-30
-3.0744e-30
-1.42783e-28
-9.50055e-28
-7.0211e-27
-2.56714e-26
-3.68743e-26
-3.03463e-25
-1.22013e-24
-2.92443e-24
-4.30668e-24
-3.96803e-24
-3.45322e-24
-3.31645e-24
-2.96973e-24
-2.45576e-24
-1.59216e-24
-1.04829e-24
-5.1965e-25
-2.85229e-25
-1.41849e-25
-4.20386e-26
-2.55353e-26
-1.46916e-27
3.0473e-27
5.32603e-27
7.08313e-27
3.68916e-27
2.1482e-27
1.49326e-27
8.04629e-28
5.09982e-28
2.61227e-28
1.40921e-28
8.18817e-29
4.12852e-29
2.02768e-29
9.72175e-30
4.66728e-30
1.53213e-30
7.60115e-31
3.64954e-31
-1.63595e-32
-1.34434e-32
-1.41696e-32
-2.0757e-32
-1.33306e-32
-6.47434e-33
-3.21769e-33
-1.72158e-33
-1.09927e-33
-4.87155e-34
-2.67334e-34
-1.30395e-34
-5.66423e-35
-2.66998e-35
-1.05683e-35
-4.36004e-36
-1.88141e-36
-7.01973e-37
-2.70797e-37
-1.09761e-37
-4.52975e-38
-1.66503e-38
-6.62172e-39
-2.49704e-39
-8.79875e-40
-4.03883e-40
-1.56872e-40
-5.67622e-41
-1.92141e-41
-3.77799e-42
-1.32218e-42
5.00322e-42
9.97291e-29
0
9.96113e-43
0
0
0
0
0
0
0
0
0
0
0
0
0
0
0
0
0
0
0
0
0
0
0
0
0
0
0
0
0
0
0
0
0
0
0
0
0
0
0
0
0
0
0
0
0
0
0
0
0
0
0
0
0
0
0
0
0
0
0
0
0
0
0
0
0
0
0
0
0
0
0
0
0
0
0
0
0
0
0
0
0
0
0
0
0
0
0
0
0
0
0
0
0
0
0
0
0
0
0
0
0
0
0
0
0
0
0
0
0
0
0
0
0
0
0
0
0
0
0
0
0
0
0
0
0
0
0
0
0
0
0
0
2.38981e-124
2.98094e-124
2.09125e-124
2.60263e-124
1.36392e-124
1.68131e-124
1.22412e-121
1.55689e-121
1.2615e-121
1.56502e-121
8.46264e-122
8.91328e-122
3.53596e-120
4.39772e-120
6.58725e-120
7.37292e-120
8.49058e-118
1.00913e-117
5.6691e-118
5.57464e-118
3.77481e-117
4.04232e-117
2.60545e-117
2.00636e-117
7.38238e-117
-2.32283e-116
-4.91136e-114
-1.00972e-113
9.15528e-111
1.1256e-110
1.30315e-110
6.84684e-111
2.19206e-107
2.75408e-107
4.41047e-107
5.4268e-107
2.86143e-107
3.49453e-107
2.74023e-105
3.34223e-105
6.52229e-105
8.35715e-105
4.0929e-105
5.07332e-105
3.95468e-104
5.00298e-104
3.54627e-104
4.39357e-104
2.20248e-104
2.77581e-104
1.68001e-104
2.13065e-104
5.48331e-105
6.74908e-105
1.66678e-104
2.02697e-104
9.30341e-104
1.01984e-103
7.86682e-102
9.18108e-102
4.98229e-102
5.83131e-102
4.11545e-102
3.52765e-102
4.61918e-100
5.43516e-100
4.05035e-100
4.48793e-100
5.06538e-100
1.32243e-100
7.75749e-98
8.55751e-98
1.14789e-97
1.27616e-97
1.08718e-97
-2.4291e-98
8.53589e-98
5.90332e-99
2.58924e-97
2.55161e-97
8.43638e-97
1.98678e-97
1.45388e-95
1.70291e-95
9.19368e-96
1.02345e-95
5.84403e-96
6.42578e-96
3.61562e-96
3.83057e-96
3.11782e-95
3.61154e-95
2.45745e-95
2.86913e-95
1.50698e-95
1.77395e-95
3.11372e-95
3.58666e-95
3.58964e-95
4.20017e-95
2.30351e-95
2.68535e-95
4.83812e-95
4.50841e-95
7.47963e-95
8.53738e-95
4.79445e-95
4.18407e-95
1.98226e-94
2.37441e-94
1.16886e-94
1.37626e-94
7.13219e-95
8.3892e-95
4.39394e-95
4.91287e-95
4.34707e-95
4.92816e-95
6.52909e-95
7.64618e-95
4.173e-95
4.49387e-95
6.86043e-94
7.70731e-94
9.20706e-94
1.03946e-93
6.0292e-94
6.68543e-94
1.24449e-93
1.03528e-93
2.56074e-93
2.90881e-93
1.69399e-93
1.09138e-93
5.00446e-93
5.84459e-93
3.10713e-93
3.52547e-93
1.92604e-93
2.21528e-93
1.52072e-93
1.73862e-93
1.01827e-93
1.132e-93
6.05977e-94
6.67167e-94
1.2232e-93
1.42302e-93
6.81921e-94
7.23626e-94
5.82051e-94
6.82223e-94
3.23583e-94
3.68096e-94
6.5918e-94
7.55089e-94
4.36669e-94
5.06089e-94
2.58613e-94
3.05655e-94
2.28255e-94
2.66642e-94
1.47432e-94
1.69059e-94
9.32107e-95
8.46178e-95
1.3104e-94
1.44504e-94
1.38972e-94
1.6467e-94
8.6205e-95
1.02115e-94
6.98473e-95
8.40735e-95
3.85146e-95
4.50394e-95
3.46346e-95
4.13386e-95
2.03457e-95
2.42363e-95
5.39491e-95
6.23065e-95
3.96331e-95
4.58982e-95
2.2477e-95
2.6018e-95
4.96098e-95
5.54231e-95
5.88283e-95
6.71263e-95
3.72696e-95
4.21643e-95
6.19152e-95
4.82414e-95
9.54686e-95
1.04941e-94
8.83689e-95
8.25608e-95
5.71128e-95
5.69289e-95
7.43497e-95
7.64161e-95
4.66934e-95
4.85898e-95
2.84202e-95
3.04579e-95
3.26915e-95
3.596e-95
3.82125e-95
4.46182e-95
2.16397e-95
2.53852e-95
3.87576e-95
4.4309e-95
3.15724e-95
3.67529e-95
1.80395e-95
2.13515e-95
1.14679e-95
1.29311e-95
8.94015e-96
1.08192e-95
5.3378e-96
6.23965e-96
5.07167e-96
5.89635e-96
3.52951e-96
4.07391e-96
2.06972e-96
2.45538e-96
1.33386e-96
1.62583e-96
7.82985e-97
9.34632e-97
4.66487e-97
5.32566e-97
6.72541e-97
8.05482e-97
3.74283e-97
4.44583e-97
2.15618e-97
2.51909e-97
1.11898e-97
1.32177e-97
1.33848e-97
1.60272e-97
7.22713e-98
8.65676e-98
3.98737e-98
4.91063e-98
-2.91018e-95
-3.66552e-95
-2.01479e-92
-2.49721e-92
-8.55984e-90
5.92249e-91
-6.85497e-86
-8.46512e-86
-9.24695e-85
-9.23601e-85
-8.89045e-81
-1.10308e-80
-5.96194e-81
-4.61602e-80
-7.51743e-81
2.11103e-30
-0.0010506
0.000513404
0.000170227
2.21917e-31
5.46847e-31
1.67861e-35
2.25839e-36
3.00125e-35
1.66881e-29
4.76126e-30
3.65285e-29
2.40585e-33
1.12919e-32
1.83625e-27
1.62348e-26
8.14954e-26
2.59252e-25
5.38767e-25
8.16197e-25
1.10901e-24
1.41689e-24
1.69497e-24
2.0344e-24
2.58385e-24
3.2125e-24
3.52518e-24
3.33776e-24
2.72185e-24
1.92459e-24
1.17716e-24
6.66032e-25
3.35864e-25
1.52483e-25
6.40459e-26
2.38778e-26
7.05102e-27
1.60523e-27
2.5549e-28
2.81637e-29
1.90691e-30
7.77472e-32
8.21789e-34
-6.09674e-35
-1.29639e-36
1.19872e-38
6.02921e-41
-1.23015e-42
-2.85783e-45
-1.63408e-46
-1.40714e-49
-1.69371e-53
6.27667e-57
-2.26017e-61
-1.54971e-64
-8.588e-70
-8.75008e-75
-3.69847e-77
-1.05051e-76
-1.5235e-79
-0.000305708
-0.000463341
0.154019
-0.00075931
-0.00181614
-0.000399081
-0.00157499
-0.000280164
-0.000255069
0.000145615
0.00179883
0.000925511
0.00406365
0.00152784
0.0052705
0.00198677
0.00552333
0.00148788
0.00447296
-4.54493e-05
0.00350699
-0.00189295
0.00156621
-0.00329961
-0.00116784
-0.00477712
-0.00396575
-0.00623322
-0.0067281
-0.00737291
-0.00904109
-0.00827747
-0.0120178
-0.00875128
-0.0144869
-0.00837395
-0.0173621
-0.00859702
0.349145
0.844954
0.820325
0.839055
0.827629
0.832296
0.827702
0.837663
0.82844
0.837384
0.826642
0.836947
0.825611
0.835488
0.826515
0.835469
0.827969
0.836808
0.828621
0.837529
0.827882
0.837781
0.827423
0.837232
0.826865
0.836556
0.826564
0.836399
0.826386
0.835716
0.831096
0.839383
0.811328
0.824826
0.91953
0.651825
0.898581
0
-0.00131807
0.00246886
0.00592544
0.00539242
0.000740843
-0.00486371
-0.0114232
-0.0162837
-0.0341187
-0.00200771
-0.000576298
-0.00074683
-0.000150133
-0.000296241
-0.000410902
-0.000405115
-0.000393363
-0.000426587
-0.000417451
-0.000410701
-0.000365042
-0.000414571
-9.45673e-05
0
0
0
0.00103012
0.000805572
0.00056741
0.902981
0.919924
0.477798
0.000192704
0.00063151
-0.0294278
-0.00693353
-0.000346696
-0.000148445
3.64241e-42
0
0
3.32298e-39
-2.94849e-33
0
2.1337e-39
0
0
0
0
0
0
0
0
0
0
0
1.78289e-40
-9.06111e-37
3.45661e-35
5.69796e-33
1.21718e-32
5.60813e-33
-6.99328e-33
1.85559e-30
1.73845e-30
3.09286e-30
4.19568e-30
1.71862e-30
1.3568e-28
-5.16136e-28
-2.77663e-27
-1.66369e-26
-2.31843e-26
-8.87251e-26
-3.75614e-25
-2.48413e-24
-4.39828e-24
-4.42034e-24
-3.90729e-24
-3.93328e-24
-3.17888e-24
-2.78878e-24
-2.03546e-24
-1.274e-24
-7.33494e-25
-3.9503e-25
-1.81747e-25
-5.89887e-26
-3.16529e-26
-2.91461e-27
4.40816e-27
7.11296e-27
7.1726e-27
5.17796e-27
3.1302e-27
2.0489e-27
1.06698e-27
7.00454e-28
3.69809e-28
1.94314e-28
1.13857e-28
5.95809e-29
2.76804e-29
1.42948e-29
6.59624e-30
2.65288e-30
1.11119e-30
5.24639e-31
9.12743e-32
-1.08302e-32
-1.2304e-32
-3.36324e-32
-1.23491e-32
-9.0396e-33
-4.69592e-33
-2.50692e-33
-1.61265e-33
-7.32831e-34
-3.86758e-34
-2.00982e-34
-8.61276e-35
-3.93244e-35
-1.72047e-35
-6.63961e-36
-2.95195e-36
-1.13208e-36
-4.31066e-37
-1.72289e-37
-7.00076e-38
-2.72974e-38
-1.04551e-38
-3.94668e-39
-1.40562e-39
-5.8849e-40
-2.41355e-40
-9.54937e-41
-3.26443e-41
-9.26716e-42
-1.86921e-42
-9.75654e-43
0
0
0
0
-0.0364109
4.69382e-28
5.87003e-27
3.95377e-26
1.51914e-25
3.94816e-25
6.80082e-25
9.53434e-25
1.25786e-24
1.55789e-24
1.84459e-24
2.28354e-24
2.91262e-24
3.43221e-24
3.48993e-24
3.07582e-24
2.32559e-24
1.53249e-24
8.91624e-25
4.8378e-25
2.29737e-25
9.89526e-26
3.9746e-26
1.34929e-26
3.49173e-27
6.91457e-28
8.84785e-29
7.78024e-30
4.15648e-31
1.16457e-32
-1.18996e-34
-1.13286e-35
-1.24311e-38
1.73406e-39
-7.95011e-42
-2.5432e-45
-1.90913e-45
-3.7254e-48
1.10883e-51
-1.64375e-55
2.05016e-58
-1.839e-62
-4.97647e-67
-1.60577e-72
0
2.54757e-05
0.00666602
0.0975803
-5.87274e-07
0
0.000345383
0.00430507
0.00603821
0.00309545
-0.0021248
-0.00858593
-0.0142706
-0.0132072
-0.0201205
-0.000237655
-0.000401452
-0.000454019
-0.000425611
-0.000233246
-0.000226036
-0.000429142
-0.000416842
-0.000409994
-0.000396506
-0.000450108
0.00015419
9.71459e-05
0
0
0
0.000222894
-0.000262277
-0.000258861
-0.000242998
-0.000231372
-0.0102088
-0.00984032
-0.00776295
-0.00453223
-0.000822452
0.0012379
-2.15815e-74
-1.99903e-69
-3.69897e-64
-3.07101e-61
1.39765e-56
-3.88609e-53
-3.20609e-49
-3.75905e-46
-2.76524e-45
-2.72293e-42
1.74855e-40
2.34409e-38
-3.18459e-36
-1.18979e-34
2.24478e-33
1.6748e-31
3.73045e-30
5.24292e-29
4.58712e-28
2.65385e-27
1.13364e-26
3.57996e-26
9.24132e-26
2.19877e-25
4.7689e-25
9.1294e-25
1.59904e-24
2.53718e-24
3.49452e-24
4.09489e-24
4.17445e-24
3.69347e-24
2.89534e-24
2.31214e-24
1.94934e-24
1.59833e-24
1.23631e-24
9.01396e-25
5.58173e-25
2.35014e-25
6.90912e-42
-3.22292e-43
-2.63482e-42
-1.96315e-41
-5.70147e-41
-1.58093e-40
-3.98653e-40
-7.89227e-40
-2.24426e-39
-5.90469e-39
-1.41202e-38
-3.94137e-38
-8.92359e-38
-2.15678e-37
-6.4615e-37
-1.71116e-36
-4.13923e-36
-1.00076e-35
-2.51742e-35
-5.50492e-35
-1.24859e-34
-2.3383e-34
-4.19501e-34
-1.03307e-33
-1.68828e-33
-2.98998e-33
-5.62254e-33
-1.72814e-32
-3.12005e-32
-3.47879e-32
-6.67775e-32
-1.31831e-31
7.71446e-32
1.03284e-31
7.51614e-32
1.80528e-30
4.47578e-30
8.6766e-30
1.80987e-29
3.69659e-29
7.45182e-29
1.46692e-28
2.30131e-28
5.41039e-28
1.06533e-27
1.6261e-27
3.1365e-27
5.6343e-27
6.00626e-27
1.20412e-26
1.31179e-26
1.6881e-26
4.78951e-26
4.93347e-26
3.8777e-26
1.39731e-25
1.70876e-25
2.4906e-25
1.10396e-24
8.88809e-25
1.09978e-24
0
0
1.90997e-24
1.70236e-24
4.01055e-24
4.12129e-24
2.59328e-24
7.39495e-25
6.79296e-26
5.2638e-26
1.65464e-26
1.60564e-27
1.38314e-27
2.57965e-29
5.74756e-31
-7.01744e-30
-9.69737e-31
-1.34254e-30
-1.09788e-31
5.4269e-33
6.87528e-33
1.28942e-34
-2.98166e-34
-1.13436e-35
5.39544e-39
8.77403e-42
0
-5.50266e-05
-0.000324726
-0.00025813
-0.000245962
-0.000231643
-0.000226644
-0.000222512
-0.0758483
-0.0114642
-0.0100081
-0.00870069
-0.00583737
-0.00194813
1.59628e-05
-3.75754e-72
-1.13907e-66
-4.25028e-62
4.79325e-58
-4.06426e-55
2.47217e-51
-8.41561e-48
-3.98963e-45
-1.13914e-44
-1.47684e-41
3.84161e-39
-7.66686e-38
-2.37351e-35
-1.42325e-34
2.6464e-32
8.40334e-31
1.5e-29
1.58942e-28
1.17345e-27
5.69276e-27
2.0748e-26
5.9244e-26
1.44865e-25
3.26642e-25
6.69572e-25
1.21804e-24
2.05844e-24
3.02434e-24
3.86013e-24
4.19827e-24
3.98286e-24
3.2973e-24
2.55539e-24
2.11671e-24
1.77704e-24
1.41875e-24
1.05493e-24
7.31892e-25
3.83091e-25
0
2.07956e-28
-3.13897e-43
-7.95192e-43
-8.32468e-42
-3.3275e-41
-9.79066e-41
-2.45207e-40
-5.49154e-40
-1.25875e-39
-3.49855e-39
-9.0439e-39
-2.2857e-38
-5.74793e-38
-1.39164e-37
-3.87012e-37
-1.01454e-36
-2.63283e-36
-6.24214e-36
-1.61335e-35
-3.64937e-35
-8.2947e-35
-1.90623e-34
-3.6193e-34
-6.51517e-34
-1.53818e-33
-2.43728e-33
-4.13917e-33
-1.00962e-32
-1.6955e-32
-4.85928e-32
-4.72518e-32
-8.61831e-32
-5.01147e-32
5.19091e-32
9.18226e-32
8.00707e-31
2.80746e-30
6.83551e-30
1.0613e-29
2.61539e-29
5.73023e-29
1.06747e-28
1.92085e-28
5.03929e-28
6.66031e-28
1.35078e-27
2.45265e-27
4.21961e-27
4.14327e-27
8.05872e-27
1.74423e-26
2.54566e-26
2.80773e-26
7.7757e-26
7.41368e-26
7.10525e-26
1.31195e-25
3.09557e-25
5.76824e-25
8.01299e-25
1.64555e-24
1.69854e-24
1.34848e-24
2.68838e-24
4.88954e-24
3.11476e-24
6.68971e-25
1.6855e-25
1.80674e-26
9.80648e-28
3.48297e-27
1.6019e-27
7.95335e-29
9.20982e-30
-2.87269e-30
1.1925e-30
-1.35794e-30
1.2548e-31
1.65088e-33
4.66366e-33
1.16722e-32
0
-1.81108e-33
1.47242e-35
-9.42354e-37
-7.02472e-40
0
0
0
0
0
0
0
0
0
0
0
6.58017e-26
1.0598e-26
9.29453e-28
3.45338e-27
2.89087e-26
1.29503e-25
0.000874293
0.00128254
0.000578525
-0.000229108
-0.000230381
-0.000225398
-0.000219654
0
0
0
0
0
0
0
0
0
0
0
0
0
0
0
0
0
0
0
0
0
0
0
0
0
0
0
0
0
0
0
0
0
0
0
0
0
0
0
0
0
0
0
0
0
0
0
0
0
0
0
0
0
0
0
0
0
0
0
0
0
0
0
0
0
0
0
0
0
0
0
0
0
0
0
0
0
0
0
0
0
0
0
0
0
0
0
0
0
0
0
0
0
0
0
0
0
0
0
0
0
0
0
0
0
0
0
0
0
0
0
0
0
0
0
0
0
0
0
0
0
0
0
0
0
0
0
0
0
0
0
0
0
0
0
0
0
0
0
0
0
0
0
0
0
0
0
0
0
0
0
0
0
0
0
0
0
0
0
0
0
0
0
0
0
0
0
0
0
0
0
0
0
0
0
0
0
0
0
0
0
0
0
0
0
0
0
0
0
0
-5.96324e-37
-3.51839e-33
7.96482e-26
0.000331002
0
0
0
0
0
0
0
0
0
1.11529e-30
-1.05167e-22
0
0
0
0
0
2.84485e-05
0
0
1.199e-36
-4.90342e-35
7.12108e-33
7.23613e-32
-1.61538e-31
1.10804e-30
0
0
5.21618e-31
3.11564e-31
-2.1988e-30
8.78513e-29
1.53681e-28
1.44352e-28
3.58429e-28
1.45487e-28
6.42292e-27
6.07464e-26
-1.81197e-25
-9.22277e-25
-1.20535e-24
-8.5161e-24
-2.73396e-23
-9.82318e-23
-1.54221e-22
-1.31797e-22
-1.06171e-22
5.4796e-23
0
0
-7.52748e-23
-5.16029e-23
-2.43721e-23
-1.46789e-23
-5.41496e-24
1.03629e-24
1.86039e-24
1.70135e-24
1.66641e-24
9.63821e-25
8.39207e-25
4.91002e-25
3.74146e-25
2.5738e-25
1.26986e-25
6.80502e-26
3.73122e-26
1.94e-26
9.49991e-27
4.67067e-27
2.28782e-27
8.20226e-28
3.11763e-28
8.29888e-29
4.15241e-29
-4.33418e-30
-3.88512e-29
-2.08006e-29
-1.1695e-29
-8.1072e-30
-3.97955e-30
-2.21846e-30
-1.05173e-30
-4.87528e-31
-2.44951e-31
-1.06099e-31
-4.92061e-32
-2.14179e-32
-8.45672e-33
-3.57987e-33
-1.72474e-33
-6.70421e-34
-2.49201e-34
-9.46212e-35
-3.73274e-35
-9.60977e-36
-3.39686e-36
6.40196e-38
3.31e-37
8.07321e-38
6.6216e-38
3.54966e-38
1.18898e-38
4.06316e-39
5.91784e-40
9.56078e-40
2.21561e-40
4.79815e-41
1.13374e-40
2.01445e-40
0
0
0
0
0
0
0
0
0
0
0
0
0
0
0
0
0
0
0
0
0
0
0
0
0
0
0
0
0
0
0
0
0
0
0
0
0
0
0
0
0
0
0
0
0
0
0
0
0
0
0
0
0
0
0
0
0
0
0
0
0
0
0
0
0
0
0
0
0
0
0
0
0
0
0
0
0
0
0
0
0
0
0
0
0
0
0
0
0
0
0
0
0
0
0
0
0
0
0
0
0
0
0
0
0
0
0
0
0
0
0
0
0
0
0
0
0
0
0
0
0
0
0
0
0
0
0
0
2.791e-123
3.50784e-123
1.76012e-123
2.23527e-123
1.77137e-122
2.20094e-122
1.95561e-122
-2.15908e-122
1.72259e-122
-7.76192e-123
1.47155e-119
1.83055e-119
9.71338e-120
1.08198e-119
7.40229e-118
9.52116e-118
4.70486e-118
5.83504e-118
3.85318e-118
3.59316e-118
9.40557e-116
8.75054e-116
3.31611e-115
2.65915e-115
1.2945e-114
1.41675e-114
2.4912e-114
-6.33071e-114
3.58009e-113
3.69347e-113
-6.43436e-112
-1.28658e-111
8.04762e-109
-3.36389e-108
3.98877e-108
-1.35062e-107
2.05121e-105
2.53599e-105
3.11699e-105
-5.34736e-105
3.99413e-105
-5.8311e-105
1.28042e-102
1.59195e-102
8.05024e-103
9.86699e-103
5.02319e-103
6.21405e-103
3.02574e-102
3.74924e-102
1.96961e-102
2.45039e-102
1.19003e-102
1.53411e-102
1.4364e-102
1.78089e-102
6.81705e-103
8.28397e-103
2.32557e-102
-8.29586e-102
7.22928e-102
-1.66087e-101
1.13787e-99
1.38843e-99
1.00242e-99
-3.4458e-100
1.00689e-99
-6.94716e-100
3.50335e-98
3.95431e-98
6.04195e-98
-1.33228e-97
2.49179e-97
-8.8973e-97
1.03577e-95
1.13427e-95
1.23186e-95
-1.42683e-95
1.01859e-94
9.38788e-95
6.8523e-95
6.09503e-95
4.62921e-95
3.97946e-95
5.5044e-94
5.85215e-94
9.18357e-94
1.02528e-93
8.97741e-94
1.01204e-93
6.44774e-94
3.14576e-94
4.47078e-94
2.37161e-94
1.83679e-93
2.0835e-93
1.3029e-93
9.18362e-94
8.54309e-94
6.18077e-94
2.42434e-93
2.69268e-93
1.76927e-93
8.53759e-94
1.47668e-93
-1.83147e-94
9.98389e-93
1.11915e-92
5.28504e-93
4.54804e-93
1.14872e-92
1.37716e-92
6.89732e-93
7.71216e-93
5.98427e-93
6.83801e-93
3.91609e-93
3.07591e-93
4.58809e-93
4.50351e-93
3.07526e-93
2.89992e-93
3.04367e-93
-2.35138e-93
3.06602e-93
-2.93518e-93
5.56056e-92
6.36861e-92
5.56689e-92
-3.06684e-92
4.66168e-92
-2.17484e-93
2.44902e-91
2.67709e-91
1.6699e-91
1.19471e-91
4.30105e-91
5.03993e-91
2.67865e-91
3.03461e-91
1.6572e-91
1.70462e-91
1.06523e-91
9.57066e-92
1.05344e-91
1.06851e-91
7.09981e-92
7.05651e-92
4.48294e-92
3.55149e-92
5.6039e-92
5.80762e-92
5.45798e-92
6.1443e-92
3.1965e-92
2.80635e-92
1.86807e-92
1.64719e-92
3.1131e-92
3.48327e-92
1.85015e-92
2.00358e-92
1.09e-92
1.20887e-92
1.14453e-92
1.31317e-92
6.58876e-93
6.58783e-93
1.50368e-92
1.77162e-92
8.95893e-93
1.01716e-92
5.44059e-93
5.99263e-93
3.34811e-93
3.82745e-93
2.16237e-93
2.36413e-93
1.59418e-93
1.80422e-93
1.08513e-93
6.11678e-94
7.28854e-94
4.34318e-94
2.51345e-93
2.83051e-93
1.80085e-93
8.05278e-94
1.17285e-93
5.21137e-94
4.04501e-93
4.32106e-93
3.16218e-93
6.22711e-94
2.52402e-93
7.23442e-95
1.34036e-92
1.47826e-92
8.57382e-93
8.6165e-93
1.18858e-92
1.22279e-92
7.81076e-93
8.23268e-93
7.75628e-93
8.64181e-93
4.91242e-93
4.52288e-93
3.06333e-93
2.82164e-93
2.42589e-93
2.38379e-93
1.47456e-93
9.47403e-94
9.44431e-94
7.51447e-94
2.19373e-93