/*--------------------------------*- C++ -*----------------------------------*\
  =========                 |
  \\      /  F ield         | OpenFOAM: The Open Source CFD Toolbox
   \\    /   O peration     | Website:  https://openfoam.org
    \\  /    A nd           | Version:  7
     \\/     M anipulation  |
\*---------------------------------------------------------------------------*/
FoamFile
{
    version     2.0;
    format      ascii;
    class       volScalarField;
    location    "0.25";
    object      T;
}
// * * * * * * * * * * * * * * * * * * * * * * * * * * * * * * * * * * * * * //

dimensions      [0 0 0 1 0 0 0];

internalField   nonuniform List<scalar> 
2500
(
0.5
0.0669148
-0.035316
-0.0277114
-0.00790209
0.00112612
0.00220548
0.000961793
3.09152e-05
-0.00022268
-0.000151136
-4.30334e-05
9.46468e-06
1.76607e-05
1.0421e-05
3.45311e-06
2.23441e-07
-5.37131e-07
-4.13194e-07
-1.85321e-07
-5.44737e-08
-6.25638e-09
4.28752e-09
3.7087e-09
1.77726e-09
6.25318e-10
1.59804e-10
1.97077e-11
-7.8491e-12
-7.34414e-12
-3.62054e-12
-1.37195e-12
-4.24642e-13
-1.03691e-13
-1.54931e-14
2.13707e-15
3.03002e-15
1.61837e-15
6.58488e-16
2.26969e-16
6.77862e-17
1.71442e-17
3.27636e-18
1.95903e-19
-2.2114e-19
-1.53879e-19
-7.02814e-20
-2.67289e-20
-9.00126e-21
-2.35534e-21
0.933085
0.500001
0.14482
-0.0139129
-0.0411793
-0.0230278
-0.00504973
0.00221546
0.0025921
0.00109318
4.68145e-05
-0.000257126
-0.000194272
-7.46155e-05
-6.97457e-06
1.2017e-05
1.00448e-05
4.61746e-06
1.27782e-06
3.85411e-08
-1.92761e-07
-1.3443e-07
-5.83696e-08
-1.79224e-08
-3.17501e-09
4.54998e-10
7.16147e-10
3.92933e-10
1.55646e-10
4.84073e-11
1.11606e-11
1.12808e-12
-6.1734e-13
-5.12203e-13
-2.44827e-13
-9.25744e-14
-2.94313e-14
-7.789e-15
-1.54114e-15
-9.64998e-17
1.06652e-16
7.5124e-17
3.43517e-17
1.29545e-17
4.26886e-18
1.24217e-18
3.11654e-19
6.1132e-20
5.2774e-21
-4.32404e-21
1.03532
0.855178
0.499992
0.18245
0.00833024
-0.0418978
-0.0324463
-0.0120404
5.40869e-05
0.00320406
0.00223978
0.000748996
-4.3704e-05
-0.000222076
-0.000151657
-5.89811e-05
-9.40938e-06
5.40213e-06
5.57959e-06
2.84634e-06
9.62228e-07
1.74535e-07
-3.607e-08
-4.99288e-08
-2.7118e-08
-1.04282e-08
-2.96938e-09
-5.05284e-10
6.38991e-11
1.03829e-10
5.70888e-11
2.30194e-11
7.50876e-12
1.95455e-12
3.40281e-13
-1.31115e-14
-4.64051e-14
-2.70283e-14
-1.14455e-14
-4.04982e-15
-1.2347e-15
-3.18345e-16
-6.24115e-17
-4.31966e-18
3.92204e-18
2.82784e-18
1.3065e-18
4.99323e-19
1.68276e-19
4.35838e-20
1.02771
1.0139
0.817546
0.500022
0.206449
0.026845
-0.0389747
-0.0387902
-0.0189619
-0.0035415
0.00259447
0.00292787
0.00151801
0.00039071
-7.9316e-05
-0.000148689
-9.05858e-05
-3.4096e-05
-6.35697e-06
1.87479e-06
2.39048e-06
1.29821e-06
4.83883e-07
1.20594e-07
7.59734e-09
-1.21993e-08
-8.88255e-09
-4.03896e-09
-1.40603e-09
-3.73643e-10
-5.95723e-11
8.42751e-12
1.24358e-11
6.74511e-12
2.73604e-12
9.17315e-13
2.554e-13
5.42544e-14
4.95268e-15
-2.93711e-15
-2.34078e-15
-1.1144e-15
-4.29536e-16
-1.43316e-16
-4.18791e-17
-1.04253e-17
-1.9645e-18
-1.11085e-19
1.34333e-19
9.86442e-20
1.0079
1.04117
0.991722
0.793637
0.499959
0.223281
0.0420883
-0.0344757
-0.042711
-0.0251425
-0.00794961
0.000764857
0.00276929
0.0019522
0.00080842
0.000151637
-6.61412e-05
-7.94003e-05
-4.3531e-05
-1.57242e-05
-3.16352e-06
4.90679e-07
8.37529e-07
4.80534e-07
1.91679e-07
5.60344e-08
9.59569e-09
-1.41323e-09
-2.1703e-09
-1.19861e-09
-4.85028e-10
-1.57409e-10
-3.98574e-11
-6.09999e-12
8.97856e-13
1.26978e-12
6.85403e-13
2.80328e-13
9.62319e-14
2.81658e-14
6.73293e-15
1.06049e-15
-7.88308e-17
-1.62262e-16
-9.08156e-17
-3.82655e-17
-1.37773e-17
-4.38885e-18
-1.24076e-18
-2.29282e-19
0.998863
1.02304
1.04199
0.973196
0.776368
0.499624
0.236453
0.0562621
-0.0275599
-0.0433364
-0.0293688
-0.012108
-0.00174958
0.00181205
0.00186561
0.00100625
0.000341549
4.05237e-05
-3.83268e-05
-3.47585e-05
-1.74238e-05
-6.08259e-06
-1.30046e-06
7.53104e-08
2.45329e-07
1.50589e-07
6.38213e-08
2.07745e-08
4.86898e-09
4.09588e-10
-3.61426e-10
-2.81136e-10
-1.33414e-10
-5.00448e-11
-1.55154e-11
-3.82482e-12
-5.84764e-13
7.53267e-14
1.13335e-13
6.18338e-14
2.5648e-14
9.0177e-15
2.75293e-15
7.15375e-16
1.4298e-16
1.12063e-17
-8.31963e-18
-6.26974e-18
-2.95653e-18
-1.07218e-18
0.997788
1.00509
1.03249
1.03883
0.957527
0.763185
0.500136
0.248801
0.0711691
-0.0175321
-0.0399824
-0.030522
-0.0147923
-0.00404851
0.000500334
0.00136582
0.000936503
0.000413087
0.000116071
5.43552e-06
-1.70034e-05
-1.27739e-05
-5.98852e-06
-2.05262e-06
-4.68793e-07
-1.01596e-08
6.0215e-08
4.08889e-08
1.84764e-08
6.55092e-09
1.8243e-09
3.36368e-10
-1.32442e-11
-4.97732e-11
-2.99295e-11
-1.29551e-11
-4.6276e-12
-1.39629e-12
-3.41399e-13
-5.41712e-14
4.73981e-15
8.99325e-15
5.05216e-15
2.13976e-15
7.71739e-16
2.44663e-16
6.7815e-17
1.56073e-17
2.41826e-18
-4.54604e-19
0.999043
0.997875
1.01193
1.03829
1.0344
0.945106
0.753281
0.500347
0.258574
0.0847166
-0.00599196
-0.0332343
-0.0282969
-0.0152697
-0.00539724
-0.000650785
0.000719135
0.000689855
0.000370564
0.000139476
3.29411e-05
-8.84213e-07
-6.08903e-06
-4.05167e-06
-1.8206e-06
-6.23203e-07
-1.52931e-07
-1.36049e-08
1.20619e-08
9.72278e-09
4.74065e-09
1.81461e-09
5.68394e-10
1.38445e-10
1.8691e-11
-4.8538e-12
-5.31095e-12
-2.78617e-12
-1.13768e-12
-3.94113e-13
-1.17341e-13
-2.8871e-14
-4.8811e-15
1.64635e-16
6.39486e-16
3.78549e-16
1.64966e-16
6.1167e-17
2.01255e-17
4.92809e-18
0.999985
0.997567
0.999656
1.01792
1.04295
1.03165
0.934486
0.740196
0.491854
0.258657
0.0922146
0.00430288
-0.0246543
-0.0234432
-0.0136866
-0.00558865
-0.00133737
0.000165846
0.000400202
0.000266692
0.000121566
4.05939e-05
8.28424e-06
-7.88665e-07
-1.84195e-06
-1.14037e-06
-5.01705e-07
-1.73819e-07
-4.58427e-08
-6.63729e-09
1.75693e-09
2.01928e-09
1.08844e-09
4.4968e-10
1.54481e-10
4.4039e-11
9.47787e-12
7.79477e-13
-6.2398e-13
-4.86343e-13
-2.35125e-13
-9.24875e-14
-3.14704e-14
-9.33911e-15
-2.33589e-15
-4.25965e-16
-9.19439e-18
4.0638e-17
2.61802e-17
1.1391e-17
1.00024
0.999149
0.99641
1.00188
1.02523
1.05004
1.02833
0.914839
0.709527
0.463279
0.242848
0.0907425
0.011397
-0.0160457
-0.0173935
-0.010855
-0.00489015
-0.00153015
-0.000179047
0.000164458
0.00015637
8.5311e-05
3.47779e-05
1.06765e-05
1.96377e-06
-2.81721e-07
-4.87585e-07
-2.91182e-07
-1.27516e-07
-4.51176e-08
-1.27346e-08
-2.42257e-09
7.00905e-11
3.57165e-10
2.2384e-10
1.00687e-10
3.75327e-11
1.19387e-11
3.15775e-12
6.03874e-13
1.4766e-14
-6.06084e-14
-4.00598e-14
-1.83979e-14
-7.06953e-15
-2.38428e-15
-7.1027e-16
-1.8173e-16
-3.60014e-17
5.6547e-19
1.00016
1.00027
0.997401
0.995209
1.00735
1.03759
1.05618
1.01044
0.868094
0.648407
0.410021
0.211454
0.0811379
0.0148112
-0.00882144
-0.0115739
-0.00772507
-0.00376064
-0.00137497
-0.000319759
1.78797e-05
7.15827e-05
4.95508e-05
2.38823e-05
9.03608e-06
2.63114e-06
4.60591e-07
-7.16015e-08
-1.15652e-07
-6.85049e-08
-3.02412e-08
-1.09888e-08
-3.29885e-09
-7.49092e-10
-6.94973e-11
4.92395e-11
4.07867e-11
2.0431e-11
8.26029e-12
2.8701e-12
8.62355e-13
2.14777e-13
3.67455e-14
-1.36503e-15
-5.06033e-15
-3.04693e-15
-1.35477e-15
-5.13521e-16
-1.73138e-16
-4.37749e-17
1.00004
1.00063
0.999001
0.994573
0.997715
1.02047
1.05074
1.04488
0.957786
0.782013
0.55622
0.338179
0.170748
0.0667137
0.0151508
-0.00366797
-0.00689155
-0.0049812
-0.00259915
-0.00105927
-0.000321852
-4.94839e-05
2.01414e-05
2.33524e-05
1.36668e-05
6.07998e-06
2.19336e-06
6.21897e-07
1.09558e-07
-1.39022e-08
-2.49191e-08
-1.49993e-08
-6.74313e-09
-2.52544e-09
-8.01325e-10
-2.06103e-10
-3.43106e-11
3.24846e-12
6.35408e-12
3.73717e-12
1.65611e-12
6.23926e-13
2.0615e-13
5.93583e-14
1.41054e-14
2.18712e-15
-2.1293e-16
-3.81597e-16
-2.17513e-16
-8.94602e-17
0.999979
1.00058
0.999916
0.995921
0.994951
1.00935
1.03687
1.0464
0.994239
0.859037
0.66033
0.445393
0.260156
0.128683
0.0510749
0.0134801
-0.000568596
-0.00362952
-0.00292512
-0.00163663
-0.000726758
-0.000257771
-6.54955e-05
-4.26294e-06
7.8908e-06
6.46613e-06
3.41834e-06
1.4436e-06
5.06464e-07
1.42765e-07
2.64325e-08
-1.85077e-09
-4.90159e-09
-3.07422e-09
-1.42064e-09
-5.4988e-10
-1.83439e-10
-5.17864e-11
-1.11842e-11
-9.39187e-13
7.52904e-13
6.03971e-13
3.01938e-13
1.23771e-13
4.43791e-14
1.41368e-14
3.94568e-15
9.06021e-16
1.31393e-16
-3.49938e-17
0.999965
1.00046
1.00018
0.99713
0.995359
1.00481
1.02622
1.03721
1.00091
0.89294
0.721045
0.520673
0.333519
0.18775
0.0912819
0.0367963
0.0108564
0.000926818
-0.0016319
-0.00156314
-0.00094626
-0.000453178
-0.000179017
-5.66312e-05
-1.19563e-05
5.38457e-07
2.32881e-06
1.60516e-06
7.95183e-07
3.24923e-07
1.12476e-07
3.19997e-08
6.37934e-09
-2.00557e-11
-8.75985e-10
-5.91106e-10
-2.83608e-10
-1.13771e-10
-3.9747e-11
-1.20745e-11
-3.04109e-12
-5.18527e-13
2.93617e-14
8.14034e-14
4.9423e-14
2.24313e-14
8.71699e-15
3.01621e-15
9.38349e-16
2.05761e-16
0.99997
1.00038
1.00015
0.997715
0.996397
1.00404
1.02092
1.02862
0.996371
0.902176
0.749313
0.564908
0.384348
0.2349
0.128073
0.0614456
0.0251544
0.00808346
0.00139228
-0.000557073
-0.000752349
-0.000503699
-0.000259804
-0.000111777
-4.03914e-05
-1.16032e-05
-2.00704e-06
3.80223e-07
5.90668e-07
3.68034e-07
1.74828e-07
7.00556e-08
2.4177e-08
7.01099e-09
1.51644e-09
9.18281e-11
-1.39328e-10
-1.06452e-10
-5.37076e-11
-2.24133e-11
-8.18106e-12
-2.6405e-12
-7.38193e-13
-1.64356e-13
-1.87872e-14
7.34481e-15
7.00305e-15
3.68284e-15
1.57023e-15
5.27055e-16
0.999977
1.00035
1.00006
0.997869
0.997105
1.00456
1.01927
1.02368
0.990525
0.901169
0.758751
0.586376
0.414378
0.267176
0.156729
0.0831956
0.0395263
0.0164222
0.0056398
0.00131895
-6.09835e-05
-0.000316261
-0.000245959
-0.000137705
-6.39171e-05
-2.54299e-05
-8.57683e-06
-2.27317e-06
-3.17736e-07
1.20469e-07
1.3551e-07
7.93471e-08
3.67115e-08
1.45663e-08
5.04827e-09
1.50053e-09
3.51172e-10
4.05164e-11
-1.85666e-11
-1.78313e-11
-9.63889e-12
-4.20834e-12
-1.60396e-12
-5.45614e-13
-1.64865e-13
-4.26011e-14
-8.20362e-15
-3.05976e-16
7.63989e-16
5.41225e-16
0.999981
1.00034
1.00001
0.99785
0.997407
1.00514
1.0192
1.02169
0.986666
0.897873
0.759808
0.594498
0.429424
0.286322
0.176135
0.0997697
0.0518031
0.0244374
0.0102914
0.00372301
0.00103825
0.000118855
-0.000105702
-0.000108626
-6.74821e-05
-3.37916e-05
-1.45544e-05
-5.46184e-06
-1.7472e-06
-4.34292e-07
-4.91346e-08
2.99331e-08
2.88567e-08
1.62699e-08
7.41412e-09
2.93351e-09
1.02602e-09
3.13399e-10
7.8766e-11
1.26354e-11
-1.63871e-12
-2.73221e-12
-1.63335e-12
-7.52849e-13
-3.00065e-13
-1.07082e-13
-3.44355e-14
-9.82228e-15
-2.3578e-15
-2.08733e-16
0.999982
1.00035
0.999984
0.997804
0.997479
1.00548
1.01953
1.02122
0.984846
0.895299
0.758379
0.596363
0.435617
0.296158
0.187683
0.110886
0.0609773
0.0310883
0.0145882
0.0062171
0.00234292
0.00073212
0.000150172
-1.68823e-05
-4.1758e-05
-3.0346e-05
-1.65681e-05
-7.68302e-06
-3.13242e-06
-1.12525e-06
-3.4615e-07
-8.21604e-08
-7.82745e-09
6.4822e-09
5.78825e-09
3.19647e-09
1.44683e-09
5.73864e-10
2.03222e-10
6.38282e-11
1.70755e-11
3.36089e-12
8.82102e-14
-3.68065e-13
-2.59165e-13
-1.28046e-13
-5.35956e-14
-2.00283e-14
-6.81003e-15
-1.74484e-15
0.999982
1.00035
0.999979
0.997774
0.99747
1.00561
1.01979
1.02129
0.984232
0.893916
0.756912
0.596043
0.437492
0.30046
0.193735
0.117517
0.0670775
0.0359721
0.018062
0.00844059
0.00363363
0.00141414
0.000478017
0.000125522
1.31432e-05
-1.23888e-05
-1.22539e-05
-7.50665e-06
-3.7638e-06
-1.65109e-06
-6.46259e-07
-2.24832e-07
-6.73265e-08
-1.55561e-08
-1.36732e-09
1.27034e-09
1.10318e-09
6.04657e-10
2.73681e-10
1.09258e-10
3.92584e-11
1.26722e-11
3.57813e-12
8.09558e-13
9.38064e-14
-3.87463e-14
-3.78419e-14
-2.06012e-14
-9.14472e-15
-3.22279e-15
0.999982
1.00035
0.999979
0.997761
0.99745
1.00563
1.01992
1.02143
0.984129
0.89335
0.75601
0.595346
0.437687
0.301976
0.196505
0.121049
0.0707229
0.039194
0.0205728
0.0101965
0.00474832
0.00206115
0.000822793
0.000294323
8.88205e-05
1.83677e-05
-1.18803e-06
-4.18906e-06
-3.09907e-06
-1.70983e-06
-8.0722e-07
-3.39843e-07
-1.29061e-07
-4.38968e-08
-1.29347e-08
-2.96472e-09
-2.70527e-10
2.28457e-10
2.00762e-10
1.10472e-10
5.02873e-11
2.02718e-11
7.40135e-12
2.45275e-12
7.25583e-13
1.81577e-13
3.1518e-14
-1.4438e-15
-4.88124e-15
-3.07111e-15
0.999982
1.00035
0.999981
0.997758
0.997437
1.00563
1.01996
1.02152
0.984172
0.893186
0.755587
0.594836
0.437439
0.302323
0.19758
0.122723
0.0726902
0.0411217
0.0222172
0.0114476
0.00561015
0.0026042
0.00113792
0.000463433
0.000172883
5.70238e-05
1.51654e-05
2.09264e-06
-9.72315e-07
-1.12322e-06
-7.1337e-07
-3.66604e-07
-1.656e-07
-6.76091e-08
-2.51171e-08
-8.41696e-09
-2.46308e-09
-5.69374e-10
-5.90939e-11
3.7693e-11
3.49596e-11
1.95285e-11
8.98745e-12
3.66871e-12
1.36246e-12
4.62986e-13
1.42615e-13
3.85169e-14
8.27545e-15
1.13251e-16
0.999982
1.00035
0.999982
0.997758
0.997432
1.00562
1.01997
1.02157
0.984223
0.893168
0.755432
0.594565
0.437192
0.302292
0.197904
0.123418
0.0736485
0.0421732
0.0232018
0.0122615
0.0062162
0.00301607
0.0013957
0.000612956
0.000253595
9.7656e-05
3.42417e-05
1.0421e-05
2.38406e-06
1.05702e-07
-3.18912e-07
-2.66107e-07
-1.53612e-07
-7.50235e-08
-3.27883e-08
-1.30834e-08
-4.78574e-09
-1.59006e-09
-4.65594e-10
-1.09935e-10
-1.34955e-11
5.61245e-12
5.8222e-12
3.34226e-12
1.56345e-12
6.47978e-13
2.44994e-13
8.52695e-14
2.72975e-14
6.31867e-15
0.999982
1.00035
0.999982
0.997758
0.99743
1.00562
1.01997
1.02158
0.984253
0.893185
0.755392
0.59445
0.437041
0.302194
0.197952
0.123661
0.0740666
0.0426968
0.0237436
0.0127489
0.006608
0.00330224
0.00158781
0.000732456
0.000322869
0.000135233
5.3361e-05
1.95527e-05
6.47311e-06
1.8154e-06
3.42665e-07
-3.34879e-08
-8.23121e-08
-5.81492e-08
-3.14461e-08
-1.47906e-08
-6.30525e-09
-2.47394e-09
-8.95601e-10
-2.96508e-10
-8.73799e-11
-2.12518e-11
-3.08484e-12
7.17015e-13
9.24068e-13
5.53544e-13
2.64759e-13
1.11719e-13
4.31432e-14
1.33403e-14
0.999982
1.00035
0.999982
0.997758
0.99743
1.00562
1.01997
1.02159
0.984266
0.893201
0.755389
0.594411
0.436968
0.30212
0.197927
0.123722
0.0742264
0.042934
0.0240182
0.0130191
0.00684261
0.00348615
0.00171983
0.0008201
0.000377077
0.000166635
7.04635e-05
2.83328e-05
1.07273e-05
3.7604e-06
1.17997e-06
3.0421e-07
4.40099e-08
-1.52078e-08
-1.87846e-08
-1.19828e-08
-6.18368e-09
-2.82733e-09
-1.18296e-09
-4.58565e-10
-1.64968e-10
-5.4635e-11
-1.62715e-11
-4.09458e-12
-6.89832e-13
6.5563e-14
1.38633e-13
8.85516e-14
4.36881e-14
1.71578e-14
0.999982
1.00035
0.999982
0.997758
0.99743
1.00562
1.01997
1.02159
0.984271
0.893209
0.755395
0.594402
0.436939
0.30208
0.197897
0.123725
0.0742768
0.0430306
0.0241464
0.0131581
0.00697339
0.00359622
0.00180419
0.000879713
0.000416255
0.000190738
8.44142e-05
3.59565e-05
1.4671e-05
5.69454e-06
2.07969e-06
7.00819e-07
2.09223e-07
4.94569e-08
4.73688e-09
-4.20422e-09
-3.96037e-09
-2.35952e-09
-1.17637e-09
-5.26495e-10
-2.17245e-10
-8.35137e-11
-2.99518e-11
-9.95223e-12
-3.00361e-12
-7.83141e-13
-1.49589e-13
-7.45477e-16
1.93028e-14
1.35222e-14
0.999982
1.00035
0.999982
0.997759
0.99743
1.00562
1.01997
1.02159
0.984272
0.893213
0.755399
0.594401
0.43693
0.302062
0.197877
0.123716
0.0742874
0.043065
0.0242011
0.0132244
0.00704149
0.00365787
0.00185464
0.000917606
0.000442651
0.000207925
9.49361e-05
4.20403e-05
1.80048e-05
7.43029e-06
2.93981e-06
1.10681e-06
3.91735e-07
1.27488e-07
3.63614e-08
7.87031e-09
3.32807e-10
-9.70288e-10
-7.88385e-10
-4.47769e-10
-2.17587e-10
-9.5834e-11
-3.9146e-11
-1.49684e-11
-5.36537e-12
-1.79245e-12
-5.49065e-13
-1.48226e-13
-3.15701e-14
7.61825e-17
0.999982
1.00035
0.999982
0.997759
0.99743
1.00562
1.01997
1.02159
0.984272
0.893214
0.755401
0.594403
0.436928
0.302055
0.197868
0.123708
0.0742865
0.0430749
0.0242221
0.0132538
0.00707465
0.0036903
0.00188301
0.000940244
0.000459343
0.000219403
0.000102346
4.65555e-05
2.06127e-05
8.86256e-06
3.68964e-06
1.48168e-06
5.70892e-07
2.09367e-07
7.21253e-08
2.27732e-08
6.23612e-09
1.23823e-09
-1.72485e-11
-2.02273e-10
-1.50064e-10
-8.23722e-11
-3.92737e-11
-1.70944e-11
-6.9337e-12
-2.64349e-12
-9.48854e-13
-3.19169e-13
-9.96373e-14
-2.20192e-14
0.999982
1.00035
0.999982
0.997759
0.99743
1.00562
1.01997
1.02159
0.984272
0.893214
0.755402
0.594404
0.436928
0.302053
0.197863
0.123703
0.0742839
0.0430765
0.0242292
0.0132657
0.00708974
0.00370634
0.00189806
0.000953011
0.000469304
0.000226626
0.000107253
4.96987e-05
2.25197e-05
9.96269e-06
4.29495e-06
1.80007e-06
7.31285e-07
2.86845e-07
1.08035e-07
3.87421e-08
1.30435e-08
4.01438e-09
1.06177e-09
1.94802e-10
-1.33514e-11
-3.934e-11
-2.75289e-11
-1.475e-11
-6.9362e-12
-2.99378e-12
-1.20883e-12
-4.60381e-13
-1.66187e-13
-4.77569e-14
0.999982
1.00035
0.999982
0.997759
0.99743
1.00562
1.01997
1.02159
0.984272
0.893215
0.755402
0.594404
0.436928
0.302053
0.197862
0.123701
0.0742819
0.043076
0.024231
0.0132701
0.00709613
0.00371381
0.0019056
0.00095983
0.000474935
0.00023093
0.000110327
5.17643e-05
2.38331e-05
1.07562e-05
4.75217e-06
2.052e-06
8.64335e-07
3.54313e-07
1.40928e-07
5.41729e-08
2.00109e-08
7.04153e-09
2.32592e-09
7.01104e-10
1.80385e-10
3.10227e-11
-3.55413e-12
-7.25572e-12
-4.89264e-12
-2.57857e-12
-1.20106e-12
-5.15497e-13
-2.08142e-13
-6.94303e-14
0.999982
1.00035
0.999982
0.997759
0.99743
1.00562
1.01997
1.02159
0.984272
0.893214
0.755402
0.594405
0.436928
0.302053
0.197861
0.1237
0.0742808
0.0430754
0.0242312
0.0132715
0.00709863
0.00371707
0.00190918
0.000963288
0.00047796
0.000233367
0.000112156
5.30523e-05
2.46899e-05
1.12973e-05
5.07782e-06
2.23939e-06
9.67702e-07
4.09093e-07
1.68867e-07
6.79036e-08
2.65201e-08
1.00194e-08
3.64077e-09
1.26115e-09
4.10215e-10
1.21691e-10
3.06998e-11
5.05795e-12
-7.2744e-13
-1.28058e-12
-8.45408e-13
-4.41016e-13
-2.04617e-13
-7.87685e-14
0.999982
1.00035
0.999982
0.997759
0.99743
1.00562
1.01997
1.02159
0.984272
0.893214
0.755402
0.594405
0.436928
0.302053
0.197861
0.1237
0.0742804
0.0430749
0.0242311
0.0132718
0.00709951
0.00371841
0.00191078
0.000964953
0.000479509
0.000234684
0.000113193
5.38174e-05
2.52219e-05
1.16479e-05
5.29782e-06
2.3713e-06
1.0435e-06
4.50943e-07
1.9111e-07
7.93049e-08
3.2163e-08
1.2719e-08
4.88999e-09
1.82044e-09
6.52466e-10
2.2314e-10
7.1722e-11
2.10387e-11
5.24799e-12
8.50811e-13
-1.27764e-13
-2.17368e-13
-1.42518e-13
-6.92165e-14
0.999982
1.00035
0.999982
0.997759
0.99743
1.00562
1.01997
1.02159
0.984272
0.893214
0.755402
0.594405
0.436928
0.302053
0.197861
0.1237
0.0742802
0.0430747
0.024231
0.0132719
0.00709977
0.00371891
0.00191146
0.000965716
0.000480265
0.000235363
0.000113755
5.42518e-05
2.55373e-05
1.18647e-05
5.43945e-06
2.45964e-06
1.09628e-06
4.8123e-07
2.07842e-07
8.82207e-08
3.67529e-08
1.50049e-08
5.99238e-09
2.33567e-09
8.85945e-10
3.25738e-10
1.15431e-10
3.90795e-11
1.24524e-11
3.62823e-12
9.0223e-13
1.47918e-13
-1.94273e-14
-3.7567e-14
0.999982
1.00035
0.999982
0.997759
0.99743
1.00562
1.01997
1.02159
0.984272
0.893214
0.755402
0.594405
0.436928
0.302053
0.197861
0.1237
0.0742801
0.0430746
0.0242309
0.0132718
0.00709984
0.00371908
0.00191173
0.000966048
0.000480617
0.000235698
0.000114048
5.44881e-05
2.57166e-05
1.1993e-05
5.52666e-06
2.51616e-06
1.13134e-06
5.02104e-07
2.19804e-07
9.48318e-08
4.02834e-08
1.68293e-08
6.90596e-09
2.77941e-09
1.09517e-09
4.21558e-10
1.5807e-10
5.7515e-11
2.01949e-11
6.78444e-12
2.1494e-12
6.24572e-13
1.56709e-13
1.54877e-14
0.999982
1.00035
0.999982
0.997759
0.99743
1.00562
1.01997
1.02159
0.984272
0.893214
0.755402
0.594405
0.436928
0.302053
0.197861
0.1237
0.0742801
0.0430746
0.0242308
0.0132718
0.00709984
0.00371914
0.00191183
0.000966185
0.000480774
0.000235857
0.000114193
5.46116e-05
2.58144e-05
1.2066e-05
5.57819e-06
2.55083e-06
1.15364e-06
5.15865e-07
2.27971e-07
9.95047e-08
4.28667e-08
1.82114e-08
7.62259e-09
3.13999e-09
1.27142e-09
5.0531e-10
1.96787e-10
7.49348e-11
2.78243e-11
1.0037e-11
3.49861e-12
1.16871e-12
3.70406e-13
8.58704e-14
0.999982
1.00035
0.999982
0.997759
0.99743
1.00562
1.01997
1.02159
0.984272
0.893214
0.755402
0.594405
0.436928
0.302053
0.197861
0.1237
0.0742801
0.0430745
0.0242308
0.0132718
0.00709983
0.00371915
0.00191186
0.000966238
0.00048084
0.000235928
0.000114263
5.46737e-05
2.58657e-05
1.21058e-05
5.60748e-06
2.57128e-06
1.16727e-06
5.2457e-07
2.33315e-07
1.02667e-07
4.46733e-08
1.92103e-08
8.15782e-09
3.41834e-09
1.41208e-09
5.7445e-10
2.29872e-10
9.03571e-11
3.48313e-11
1.31408e-11
4.8392e-12
1.73321e-12
6.02693e-13
1.6735e-13
0.999982
1.00035
0.999982
0.997759
0.99743
1.00562
1.01997
1.02159
0.984272
0.893214
0.755402
0.594405
0.436928
0.302053
0.197861
0.1237
0.0742801
0.0430745
0.0242308
0.0132718
0.00709982
0.00371915
0.00191187
0.000966257
0.000480867
0.00023596
0.000114295
5.47038e-05
2.58917e-05
1.21269e-05
5.62354e-06
2.5829e-06
1.17529e-06
5.2987e-07
2.36678e-07
1.04722e-07
4.58856e-08
1.99019e-08
8.54022e-09
3.62352e-09
1.51906e-09
6.28718e-10
2.56681e-10
1.03266e-10
4.08938e-11
1.59193e-11
6.08241e-12
2.27636e-12
8.35043e-13
2.5301e-13
0.999982
1.00035
0.999982
0.997759
0.99743
1.00562
1.01997
1.02159
0.984272
0.893214
0.755402
0.594405
0.436928
0.302053
0.197861
0.1237
0.0742801
0.0430745
0.0242308
0.0132718
0.00709982
0.00371914
0.00191187
0.000966263
0.000480877
0.000235973
0.000114309
5.47178e-05
2.59045e-05
1.21376e-05
5.63204e-06
2.58928e-06
1.17985e-06
5.32985e-07
2.38719e-07
1.06009e-07
4.66684e-08
2.03624e-08
8.80255e-09
3.76853e-09
1.59695e-09
6.69428e-10
2.77403e-10
1.13549e-10
4.5873e-11
1.82734e-11
7.16979e-12
2.76725e-12
1.05228e-12
3.36532e-13
0.999982
1.00035
0.999982
0.997759
0.99743
1.00562
1.01997
1.02159
0.984272
0.893214
0.755402
0.594405
0.436928
0.302053
0.197861
0.1237
0.0742801
0.0430745
0.0242308
0.0132718
0.00709982
0.00371914
0.00191187
0.000966265
0.000480881
0.000235978
0.000114315
5.47241e-05
2.59105e-05
1.21429e-05
5.6364e-06
2.59267e-06
1.18236e-06
5.34754e-07
2.39916e-07
1.06787e-07
4.71563e-08
2.06579e-08
8.9759e-09
3.86715e-09
1.65146e-09
6.98732e-10
2.92749e-10
1.21384e-10
4.9777e-11
2.01733e-11
8.07351e-12
3.18761e-12
1.24408e-12
4.13044e-13
0.999982
1.00035
0.999982
0.997759
0.99743
1.00562
1.01997
1.02159
0.984272
0.893214
0.755402
0.594405
0.436928
0.302053
0.197861
0.1237
0.0742801
0.0430745
0.0242308
0.0132718
0.00709982
0.00371914
0.00191187
0.000966265
0.000480882
0.00023598
0.000114318
5.47269e-05
2.59132e-05
1.21454e-05
5.63856e-06
2.59442e-06
1.1837e-06
5.35728e-07
2.40596e-07
1.07243e-07
4.74505e-08
2.08413e-08
9.08653e-09
3.93187e-09
1.68822e-09
7.19044e-10
3.03677e-10
1.27118e-10
5.27122e-11
2.16413e-11
8.79118e-12
3.53083e-12
1.40516e-12
4.79477e-13
0.999982
1.00035
0.999982
0.997759
0.99743
1.00562
1.01997
1.02159
0.984272
0.893214
0.755402
0.594405
0.436928
0.302053
0.197861
0.1237
0.0742801
0.0430745
0.0242308
0.0132718
0.00709982
0.00371914
0.00191187
0.000966265
0.000480882
0.00023598
0.000114319
5.4728e-05
2.59144e-05
1.21466e-05
5.6396e-06
2.59529e-06
1.18439e-06
5.36249e-07
2.4097e-07
1.07501e-07
4.76223e-08
2.09515e-08
9.15486e-09
3.97294e-09
1.71218e-09
7.32637e-10
3.11185e-10
1.3116e-10
5.48361e-11
2.27313e-11
9.33813e-12
3.79933e-12
1.53453e-12
5.34499e-13
0.999982
1.00035
0.999982
0.997759
0.99743
1.00562
1.01997
1.02159
0.984272
0.893214
0.755402
0.594405
0.436928
0.302053
0.197861
0.1237
0.0742801
0.0430745
0.0242308
0.0132718
0.00709982
0.00371914
0.00191187
0.000966265
0.000480882
0.00023598
0.000114319
5.47285e-05
2.59149e-05
1.21471e-05
5.64009e-06
2.59571e-06
1.18473e-06
5.36519e-07
2.41171e-07
1.07644e-07
4.77198e-08
2.10158e-08
9.19581e-09
3.9982e-09
1.72731e-09
7.41442e-10
3.16173e-10
1.33913e-10
5.63195e-11
2.35118e-11
9.73957e-12
4.00135e-12
1.63433e-12
5.78179e-13
0.999982
1.00035
0.999982
0.997759
0.99743
1.00562
1.01997
1.02159
0.984272
0.893214
0.755402
0.594405
0.436928
0.302053
0.197861
0.1237
0.0742801
0.0430745
0.0242308
0.0132718
0.00709982
0.00371914
0.00191187
0.000966265
0.000480882
0.000235981
0.000114319
5.47286e-05
2.59151e-05
1.21473e-05
5.64031e-06
2.59591e-06
1.1849e-06
5.36655e-07
2.41275e-07
1.0772e-07
4.77736e-08
2.10522e-08
9.21964e-09
4.0133e-09
1.73658e-09
7.46974e-10
3.19385e-10
1.3573e-10
5.7322e-11
2.4052e-11
1.00242e-11
4.14802e-12
1.70853e-12
6.11546e-13
0.999982
1.00035
0.999982
0.997759
0.99743
1.00562
1.01997
1.02159
0.984272
0.893214
0.755402
0.594405
0.436928
0.302053
0.197861
0.1237
0.0742801
0.0430745
0.0242308
0.0132718
0.00709982
0.00371914
0.00191187
0.000966265
0.000480882
0.000235981
0.000114319
5.47287e-05
2.59152e-05
1.21474e-05
5.6404e-06
2.596e-06
1.18498e-06
5.36722e-07
2.41328e-07
1.0776e-07
4.78024e-08
2.10723e-08
9.23314e-09
4.02207e-09
1.7421e-09
7.50351e-10
3.21393e-10
1.36893e-10
5.7979e-11
2.44144e-11
1.02195e-11
4.25103e-12
1.76184e-12
6.36149e-13
0.999982
1.00035
0.999982
0.997759
0.99743
1.00562
1.01997
1.02159
0.984272
0.893214
0.755402
0.594405
0.436928
0.302053
0.197861
0.1237
0.0742801
0.0430745
0.0242308
0.0132718
0.00709982
0.00371914
0.00191187
0.000966265
0.000480882
0.000235981
0.000114319
5.47287e-05
2.59152e-05
1.21475e-05
5.64045e-06
2.59604e-06
1.18502e-06
5.36754e-07
2.41354e-07
1.0778e-07
4.78175e-08
2.10831e-08
9.24059e-09
4.02703e-09
1.74531e-09
7.52357e-10
3.22614e-10
1.37617e-10
5.83975e-11
2.46504e-11
1.03496e-11
4.32117e-12
1.79896e-12
6.53705e-13
0.999982
1.00035
0.999982
0.997759
0.99743
1.00562
1.01997
1.02159
0.984272
0.893214
0.755402
0.594405
0.436928
0.302053
0.197861
0.1237
0.0742801
0.0430745
0.0242308
0.0132718
0.00709982
0.00371914
0.00191187
0.000966265
0.000480882
0.000235981
0.000114319
5.47287e-05
2.59153e-05
1.21475e-05
5.64046e-06
2.59606e-06
1.18504e-06
5.36769e-07
2.41367e-07
1.07791e-07
4.78253e-08
2.10887e-08
9.2446e-09
4.02977e-09
1.74712e-09
7.53518e-10
3.23338e-10
1.38056e-10
5.86568e-11
2.48e-11
1.04339e-11
4.36758e-12
1.82405e-12
6.65858e-13
0.999982
1.00035
0.999982
0.997759
0.99743
1.00562
1.01997
1.02159
0.984272
0.893214
0.755402
0.594405
0.436928
0.302053
0.197861
0.1237
0.0742801
0.0430745
0.0242308
0.0132718
0.00709982
0.00371914
0.00191187
0.000966265
0.000480882
0.000235981
0.000114319
5.47287e-05
2.59153e-05
1.21475e-05
5.64047e-06
2.59607e-06
1.18505e-06
5.36776e-07
2.41373e-07
1.07795e-07
4.78291e-08
2.10917e-08
9.2467e-09
4.03124e-09
1.74812e-09
7.54174e-10
3.23756e-10
1.38315e-10
5.88134e-11
2.48923e-11
1.0487e-11
4.39746e-12
1.84054e-12
6.74033e-13
0.999982
1.00035
0.999982
0.997759
0.99743
1.00562
1.01997
1.02159
0.984272
0.893214
0.755402
0.594405
0.436928
0.302053
0.197861
0.1237
0.0742801
0.0430745
0.0242308
0.0132718
0.00709982
0.00371914
0.00191187
0.000966265
0.000480882
0.000235981
0.000114319
5.47287e-05
2.59153e-05
1.21475e-05
5.64047e-06
2.59607e-06
1.18505e-06
5.36779e-07
2.41375e-07
1.07798e-07
4.7831e-08
2.10931e-08
9.24779e-09
4.03202e-09
1.74866e-09
7.54536e-10
3.23992e-10
1.38465e-10
5.89057e-11
2.49478e-11
1.05196e-11
4.41621e-12
1.8511e-12
6.79386e-13
0.999982
1.00035
0.999982
0.997759
0.99743
1.00562
1.01997
1.02159
0.984272
0.893214
0.755402
0.594405
0.436928
0.302053
0.197861
0.1237
0.0742801
0.0430745
0.0242308
0.0132718
0.00709982
0.00371914
0.00191187
0.000966265
0.000480882
0.000235981
0.000114319
5.47287e-05
2.59153e-05
1.21475e-05
5.64047e-06
2.59607e-06
1.18505e-06
5.3678e-07
2.41377e-07
1.07799e-07
4.78319e-08
2.10938e-08
9.24833e-09
4.03242e-09
1.74894e-09
7.54731e-10
3.24122e-10
1.38549e-10
5.89589e-11
2.49805e-11
1.05392e-11
4.42769e-12
1.85769e-12
6.82805e-13
0.999982
1.00035
0.999982
0.997759
0.99743
1.00562
1.01997
1.02159
0.984272
0.893214
0.755402
0.594405
0.436928
0.302053
0.197861
0.1237
0.0742801
0.0430745
0.0242308
0.0132718
0.00709982
0.00371914
0.00191187
0.000966265
0.000480882
0.000235981
0.000114319
5.47287e-05
2.59153e-05
1.21475e-05
5.64047e-06
2.59607e-06
1.18505e-06
5.36781e-07
2.41377e-07
1.07799e-07
4.78323e-08
2.10942e-08
9.2486e-09
4.03262e-09
1.74909e-09
7.54834e-10
3.24192e-10
1.38596e-10
5.89888e-11
2.49992e-11
1.05507e-11
4.43454e-12
1.8617e-12
6.84928e-13
0.999982
1.00035
0.999982
0.997759
0.99743
1.00562
1.01997
1.02159
0.984272
0.893214
0.755402
0.594405
0.436928
0.302053
0.197861
0.1237
0.0742801
0.0430745
0.0242308
0.0132718
0.00709982
0.00371914
0.00191187
0.000966265
0.000480882
0.000235981
0.000114319
5.47287e-05
2.59153e-05
1.21475e-05
5.64047e-06
2.59608e-06
1.18505e-06
5.36781e-07
2.41377e-07
1.078e-07
4.78325e-08
2.10943e-08
9.24874e-09
4.03273e-09
1.74917e-09
7.54892e-10
3.24233e-10
1.38623e-10
5.90068e-11
2.50108e-11
1.05579e-11
4.43895e-12
1.86435e-12
6.86359e-13
)
;

boundaryField
{
    upperWall
    {
        type            zeroGradient;
    }
    outlet
    {
        type            zeroGradient;
    }
    inlet
    {
        type            fixedValue;
        value           uniform 1;
    }
    lowerWall
    {
        type            fixedValue;
        value           uniform 0;
    }
    frontAndBack
    {
        type            empty;
    }
}


// ************************************************************************* //
