/*--------------------------------*- C++ -*----------------------------------*\
  =========                 |
  \\      /  F ield         | OpenFOAM: The Open Source CFD Toolbox
   \\    /   O peration     | Website:  https://openfoam.org
    \\  /    A nd           | Version:  7
     \\/     M anipulation  |
\*---------------------------------------------------------------------------*/
FoamFile
{
    version     2.0;
    format      ascii;
    class       volScalarField;
    location    "0.4";
    object      T;
}
// * * * * * * * * * * * * * * * * * * * * * * * * * * * * * * * * * * * * * //

dimensions      [0 0 0 1 0 0 0];

internalField   nonuniform List<scalar> 
23686
(
0.509941
0.910643
0.997281
0.975489
1.00718
1.01727
1.00286
1.00909
1.00026
1.00127
0.999751
0.999405
0.999891
0.999662
0.999995
0.99997
1.00001
1.00003
1.00001
1.00002
1
1
0.999999
0.999998
1
0.999999
1
1
1
1
1
1
1
1
1
1
1
1
1
1
1
1
1
1
1
1
1
1
1
1
1
1
1
1
1
1
1
1
1
1
1
1
1
1
1
1
1
1
1
1
1
1
1
1
1
1
1
1
1
1
1
1
1
1
1
1
1
1
1
1
1
1
1
1
1
1
1
1
1
1
1
1
1
1
1
1
1
1
1
1
1
1
1
1
1
1
1
1
1
1
1
1
1
1
1
1
1
1
1
1
1
1
1
1
1
1
1
1
1
1
1
1
1
1
1
1
1
1
1
1
1
1
1
1
1
1
1
1
1
1
1
1
1
1
1
1
1
1
1
1
1
1
1
1
1
1
1
1
1
1
1
1
1
1
1
1
1
1
1
1
1
1
1
1
1
1
1
1
1
0.11164
-0.00310636
-0.000317299
5.52317e-05
-1.03086e-05
1.75393e-07
1.75429e-07
-3.21786e-08
1.99148e-09
3.84696e-10
-1.70192e-10
1.34913e-11
2.19426e-12
-1.07459e-12
9.29537e-14
4.2381e-14
-3.96997e-15
-1.72081e-15
-5.60933e-17
3.86104e-17
6.58832e-18
7.46456e-20
-9.34126e-20
-1.24692e-20
-3.34795e-22
8.50355e-23
1.27407e-23
7.34308e-25
-3.4528e-26
-1.01799e-26
-9.52772e-28
-3.12243e-29
2.64219e-30
4.06377e-31
2.8636e-32
3.8692e-34
-9.88414e-35
-1.30876e-35
-7.76994e-37
-1.25019e-38
2.03643e-39
2.55266e-40
1.30772e-41
2.11689e-43
-3.51209e-44
-3.61488e-45
-2.03253e-46
-7.17574e-48
6.74963e-50
3.71752e-66
7.15171e-50
-2.41359e-48
-1.02083e-46
3.93405e-45
-8.29757e-45
-6.97267e-43
1.36715e-41
-1.24964e-39
3.80796e-39
4.76932e-37
1.5978e-35
-1.90954e-35
-7.29521e-34
-6.64466e-33
1.67361e-31
1.77053e-31
-8.09994e-30
2.19044e-28
8.94339e-28
-2.21064e-26
1.49143e-25
-2.27453e-24
-3.96046e-23
-9.91073e-23
-2.37747e-23
-1.04893e-20
-7.13965e-20
-6.79982e-19
-1.81457e-18
1.31928e-18
-3.17731e-17
-5.18524e-17
2.36066e-16
-4.78792e-16
1.06119e-15
-8.46232e-16
-5.14843e-15
-1.40226e-14
-1.57819e-14
5.86885e-14
6.93226e-13
2.79489e-12
8.71829e-12
2.17422e-11
4.4035e-11
7.77112e-11
1.27155e-10
1.65556e-10
1.6596e-10
1.99486e-10
1
1
1
1
1
1
1
1
1
1
1
1
1
1
0.999999
0.999999
1
1
1
1
1
1
0.999998
0.999999
0.999995
0.999996
1
0.999998
1.00001
1.00001
1.00002
1.00002
1.00001
1.00001
0.999988
0.999996
0.999904
0.999927
0.999842
0.999856
0.999951
0.999915
1.00033
1.00021
1.00093
1.00073
1.00139
1.0012
1.00097
1.00104
0.998808
0.999495
0.994111
0.995623
0.985508
0.988199
0.972005
0.976423
0.952406
0.958705
0.925522
0.933735
0.890771
0.901362
0.847836
0.860771
0.798676
0.813144
0.744066
0.760384
0.682989
0.701069
0.621019
0.638838
0.55788
0.576133
0.494062
0.512465
0.433845
0.451442
0.374718
0.39184
0.321289
0.336551
0.271841
0.285865
0.226356
0.239051
0.187534
0.19828
0.154027
0.16337
0.123799
0.132029
0.0993516
0.105976
0.0790742
0.0846112
0.0620455
0.0667534
0.0481413
0.051884
0.0372875
0.0401661
0.028668
0.0309992
0.0217476
0.0236111
0.0162912
0.0177316
0.0122089
0.0132897
0.0090969
0.00993234
0.00663979
0.00728706
0.0048706
0.0053384
0.00352915
0.00388013
0.0025155
0.00277526
0.00181254
0.00199596
0.00129847
0.00143358
0.000907038
0.00100678
0.000640039
0.000708645
0.000449741
0.000498841
0.000311376
0.000347246
0.000213562
0.000238386
0.000147925
0.000164684
0.000101126
0.00011299
6.88486e-05
7.70305e-05
4.59418e-05
5.15884e-05
3.10675e-05
3.48078e-05
2.0984e-05
2.35677e-05
1.37915e-05
1.55672e-05
9.18693e-06
1.03406e-05
6.05584e-06
6.83415e-06
3.94202e-06
4.45751e-06
2.58156e-06
2.91508e-06
1.69156e-06
1.9139e-06
1.07823e-06
1.22604e-06
6.98613e-07
7.9121e-07
4.50299e-07
5.10695e-07
2.86208e-07
3.25878e-07
1.84564e-07
2.10024e-07
1.15529e-07
1.32142e-07
7.34996e-08
8.38041e-08
4.60682e-08
5.26811e-08
2.83494e-08
3.25063e-08
1.7818e-08
2.03599e-08
1.12064e-08
1.28319e-08
6.84371e-09
7.87636e-09
4.24816e-09
4.87748e-09
2.65941e-09
3.06228e-09
1.65225e-09
1.92289e-09
1.02087e-09
1.20105e-09
6.48577e-10
7.68589e-10
3.82714e-10
2.39946e-10
4.55331e-10
7.10842e-50
1.74948e-10
0.0139069
-0.00200416
0.000101508
-3.29741e-06
-3.4534e-06
5.32179e-07
-1.86604e-08
-8.67498e-09
1.9808e-09
-2.22642e-10
-3.40358e-11
1.12876e-11
-1.23053e-12
-2.6151e-13
1.05501e-13
6.46781e-15
-3.82798e-15
-5.06202e-16
4.68844e-17
1.84198e-17
1.58734e-18
-1.48917e-19
-3.86196e-20
-2.89354e-21
8.56393e-23
3.8469e-23
3.46254e-24
7.3622e-26
-2.54654e-26
-3.33917e-27
-2.13027e-28
7.2839e-31
1.2358e-30
1.15615e-31
5.28786e-33
-1.66537e-34
-3.87686e-35
-3.5598e-36
-1.33072e-37
2.55441e-39
7.97892e-40
6.36584e-41
2.165e-42
-4.29092e-44
-1.28554e-44
-9.07239e-46
-4.17303e-47
-8.01848e-49
-0.00133342
7.33465e-50
2.14004e-10
-7.31138e-49
-1.40109e-47
1.58928e-45
-3.48799e-44
-8.82367e-45
4.64556e-42
1.17774e-40
2.78322e-39
-7.81155e-38
-3.14502e-36
-3.20021e-35
1.18677e-34
4.01754e-33
-1.55144e-32
-5.50128e-31
3.17513e-30
-1.80265e-29
-7.55974e-28
3.59786e-27
2.41668e-26
-2.82601e-25
1.42691e-23
7.33787e-23
3.61176e-23
2.10128e-21
2.938e-20
2.17227e-19
1.55048e-18
-1.18667e-19
7.13119e-18
6.84987e-17
-1.05692e-16
1.44874e-16
-5.35894e-16
3.08734e-15
-4.34028e-15
-7.68984e-15
-2.18642e-14
-1.26046e-15
2.46812e-13
1.47042e-12
4.8832e-12
1.42063e-11
3.21631e-11
5.95075e-11
1.01864e-10
1.5088e-10
1.77313e-10
0.000148593
0.0642368
-2.77273e-05
0.453368
0.000140418
1.57753e-06
-1.07378e-05
1.40761e-06
-1.25845e-08
-2.71723e-08
5.35873e-09
-5.22597e-10
-1.15339e-10
3.14057e-11
-3.22692e-12
-7.81408e-13
3.41938e-13
2.49368e-14
-1.20528e-14
-1.86607e-15
1.32473e-16
6.31252e-17
6.14135e-18
-4.52366e-19
-1.35877e-19
-1.14888e-20
1.80479e-22
1.36269e-22
1.31988e-23
3.97834e-25
-8.47082e-26
-1.19534e-26
-8.54726e-28
-5.64942e-30
4.21533e-30
4.30506e-31
2.31321e-32
-3.63097e-34
-1.36459e-34
-1.34785e-35
-5.91206e-37
3.94009e-39
2.76874e-39
2.54249e-40
9.99982e-42
-4.60799e-44
-4.49587e-44
-3.68931e-45
-1.75984e-46
-4.36544e-48
1.77974e-49
-1.72193e-47
1.47666e-45
-3.70985e-44
3.03559e-44
5.89524e-42
1.14812e-40
1.60306e-39
-1.03144e-37
-3.27313e-36
-3.09303e-35
1.31407e-34
4.08185e-33
-1.40549e-32
-4.43733e-31
4.09219e-30
-1.54976e-29
-6.90019e-28
4.28798e-27
2.99262e-26
-2.44744e-25
1.35405e-23
6.0634e-23
-1.07321e-23
1.81881e-21
2.74364e-20
2.03257e-19
1.52223e-18
-1.76992e-19
6.93162e-18
6.92591e-17
-1.05732e-16
1.53254e-16
-5.41291e-16
3.31819e-15
-5.05916e-15
-9.40738e-15
-2.55552e-14
7.49648e-16
3.15401e-13
1.82518e-12
6.01349e-12
1.74035e-11
3.9184e-11
7.28013e-11
1.23427e-10
1.82272e-10
2.11938e-10
-7.54927e-49
-1.12997e-07
5.32713e-07
-8.58342e-08
3.88452e-09
1.24753e-09
-4.63521e-10
3.1255e-11
6.73079e-12
-2.91999e-12
2.86045e-13
1.46134e-13
-9.67685e-15
-5.96155e-15
-2.53596e-16
1.29954e-16
2.30176e-17
5.35966e-19
-3.27678e-19
-4.41857e-20
-1.74222e-21
2.65034e-22
4.74542e-23
2.94834e-24
-8.20306e-26
-3.701e-26
-3.42347e-27
-1.46255e-28
8.02461e-30
1.5161e-30
1.10473e-31
2.55425e-33
-3.3993e-34
-4.53699e-35
-3.2032e-36
-7.24781e-38
6.37104e-39
8.92999e-40
5.56821e-41
1.22325e-42
-9.79173e-44
-1.41215e-44
-8.54372e-46
-3.21355e-47
-1.40945e-49
-4.23761e-47
4.52768e-45
-2.36333e-44
-7.63508e-43
1.16148e-41
-1.20085e-39
9.37233e-39
5.61559e-37
1.62657e-35
-2.91643e-35
-7.13869e-34
-6.33755e-33
1.50438e-31
-1.75171e-31
-9.36815e-30
2.15653e-28
6.33812e-28
-2.39316e-26
1.33116e-25
-2.32102e-24
-3.65123e-23
-7.16304e-23
7.46865e-23
-9.9056e-21
-6.70684e-20
-6.64296e-19
-1.83501e-18
1.45638e-18
-3.14577e-17
-5.48551e-17
2.54297e-16
-5.30668e-16
1.24836e-15
-8.50339e-16
-6.26807e-15
-1.68362e-14
-1.9134e-14
7.8122e-14
8.66132e-13
3.43214e-12
1.06571e-11
2.66312e-11
5.40272e-11
9.49137e-11
1.53896e-10
1.99897e-10
2.02907e-10
-0.00528114
-0.00556021
-2.94629e-48
0.594883
-0.00160947
0.942444
1.00339
0.979133
1.00791
1.01325
1.00265
1.00761
0.999944
1.00096
0.999656
0.999356
0.999885
0.999649
1
0.999959
1.00002
1.00003
1.00001
1.00002
1
1
0.999999
0.999998
1
0.999999
1
1
1
1
1
1
1
1
1
1
1
1
1
1
1
1
1
1
1
1
1
1
1
1
1
1
1
1
1
1
1
1
1
1
1
1
1
1
1
1
1
1
1
1
1
1
1
1
1
1
1
1
1
1
1
1
1
1
1
1
1
1
1
1
1
1
1
1
1
1
1
1
1
1
1
1
1
1
1
1
1
1
1
1
1
1
1
1
1
1
1
1
1
1
1
1
1
1
1
1
1
1
1
1
1
1
1
1
1
1
1
1
1
1
1
1
1
1
1
1
1
1
1
1
1
1
1
1
1
1
1
1
1
1
1
1
1
1
1
1
1
1
1
1
1
1
1
1
1
1
1
1
1
1
1
1
1
1
1
1
1
1
1
1
1
1
1
1
1
-4.73848e-48
0.00261077
0.000236229
0.235597
-1.05642e-05
-3.43448e-06
7.56859e-07
-5.5171e-08
-7.63865e-09
3.24602e-09
-3.74753e-10
-3.40652e-11
1.90065e-11
-2.62116e-12
-5.29389e-13
1.79632e-13
2.79325e-14
-4.1292e-15
-1.15923e-15
-3.72593e-17
1.95696e-17
3.21163e-18
8.6469e-20
-3.48694e-20
-4.56767e-21
-1.69088e-22
2.7295e-23
4.49641e-24
3.25449e-25
-7.00237e-28
-2.56244e-27
-2.59692e-28
-1.09702e-29
4.75027e-31
1.01106e-31
8.35714e-33
2.48602e-34
-1.43347e-35
-2.73366e-36
-1.97034e-37
-6.67989e-39
2.15013e-40
4.82623e-41
3.78407e-42
1.45142e-43
-1.19439e-45
-5.20202e-46
-4.80897e-47
-2.14846e-48
1.04506e-46
-0.00445074
-0.00527208
-0.00421271
4.17926e-51
2.90215e-10
4.38214e-10
-1.3159e-05
-1.12008e-05
0.517419
3.70578e-45
-3.16587e-44
-5.98817e-43
1.29646e-41
-1.49023e-39
1.27338e-38
7.37531e-37
2.13137e-35
-2.98328e-35
-7.69631e-34
-1.01115e-32
1.66304e-31
-1.37105e-31
-1.54645e-29
2.73319e-28
1.15442e-27
-3.37497e-26
1.35708e-25
-2.45617e-24
-5.12953e-23
-1.15187e-22
2.25123e-22
-1.33035e-20
-9.64869e-20
-9.3009e-19
-3.40095e-18
2.53248e-18
-4.30468e-17
-1.17069e-16
4.44886e-16
-8.94496e-16
2.43704e-15
-3.02015e-15
-8.85938e-15
-2.50951e-14
-2.0013e-14
1.59965e-13
1.44661e-12
5.36469e-12
1.63426e-11
3.97208e-11
7.80193e-11
1.37222e-10
2.17045e-10
2.75591e-10
2.52389e-10
3.23755e-10
0.0528654
0.185682
0.025489
7.61729e-05
0.000473589
6.62961e-05
7.89337e-06
1
1
1
1
1
1
1
1
1
1
1
1
0.999999
0.999999
1
1
1
1
1
1
0.999998
1
0.999996
0.999995
1
0.999998
1.00001
1.00001
1.00002
1.00002
1.00001
1.00002
0.999985
1
0.999892
0.999918
0.999846
0.999828
0.999993
0.999892
1.00039
1.0002
1.00095
1.00073
1.0013
1.00128
1.00071
1.00128
0.998509
0.999997
0.993749
0.996631
0.984987
0.989727
0.971828
0.978738
0.952412
0.962372
0.924957
0.937863
0.890156
0.90595
0.847609
0.86667
0.797967
0.819439
0.743699
0.766305
0.684055
0.709298
0.620954
0.646645
0.557398
0.582246
0.495148
0.519886
0.434946
0.457809
0.376981
0.399496
0.322511
0.342901
0.272931
0.291402
0.227621
0.244327
0.188221
0.202531
0.154482
0.16633
0.124704
0.135278
0.0997446
0.108491
0.0793152
0.0863789
0.0627527
0.0684943
0.0487735
0.0536405
0.0373152
0.0410682
0.028882
0.0317449
0.0220104
0.0243058
0.0164853
0.0183003
0.0123307
0.0136938
0.00919651
0.0102058
0.00676557
0.00756144
0.00493677
0.00552054
0.00357488
0.00400875
0.00255351
0.00287584
0.0018395
0.00206733
0.00131474
0.00147659
0.000925943
0.00104723
0.000649457
0.000735204
0.000454513
0.00051414
0.000318447
0.00036022
0.0002191
0.000249698
0.000149274
0.000169845
0.00010305
0.000117299
6.99568e-05
7.97764e-05
4.68791e-05
5.37466e-05
3.16586e-05
3.62077e-05
2.14336e-05
2.44526e-05
1.41959e-05
1.63328e-05
9.38944e-06
1.07867e-05
6.16358e-06
7.08648e-06
4.03242e-06
4.65047e-06
2.63123e-06
3.03614e-06
1.72349e-06
1.98228e-06
1.11113e-06
1.28658e-06
7.13507e-07
8.26661e-07
4.55374e-07
5.26707e-07
2.94928e-07
3.41465e-07
1.89428e-07
2.18607e-07
1.19836e-07
1.39448e-07
7.56117e-08
8.79078e-08
4.72699e-08
5.50689e-08
2.92182e-08
3.42041e-08
1.83557e-08
2.14097e-08
1.15263e-08
1.33976e-08
7.12693e-09
8.34276e-09
4.37489e-09
5.12532e-09
2.74387e-09
3.19708e-09
1.76858e-09
2.04939e-09
1.16386e-09
1.36353e-09
0.759785
-1.2742e-48
-0.000422185
0.806072
-6.54561e-48
0.000213929
-1.84501e-47
-1.05417e-48
6.51777e-07
1.62911e-07
-4.57632e-08
4.78334e-09
4.3651e-10
-2.3162e-10
2.7585e-11
2.8975e-12
-2.00952e-12
1.15813e-13
9.69242e-14
3.16114e-16
-2.72286e-15
-3.21663e-16
2.36904e-17
9.43338e-18
7.62247e-19
-4.30826e-20
-1.50275e-20
-1.10875e-21
1.9104e-23
1.31162e-23
1.35478e-24
5.05476e-26
-5.12576e-27
-9.08863e-28
-6.25846e-29
-6.87657e-31
2.75172e-31
3.32215e-32
1.65153e-33
7.1674e-36
-7.6958e-36
-7.91211e-37
-4.12049e-38
-4.32787e-40
1.38288e-40
1.40582e-41
8.42323e-43
1.50102e-44
-1.38796e-45
-1.66688e-46
-1.1291e-47
6.94643e-47
-2.08568e-07
1.88643e-45
-5.45472e-44
7.83323e-44
1.00942e-41
8.62007e-41
1.75217e-39
-1.36881e-37
-3.7183e-36
-4.8992e-35
1.66133e-34
5.49789e-33
-7.85682e-33
-5.75594e-31
5.6692e-30
-4.5879e-30
-8.96753e-28
4.58047e-27
6.21194e-26
-4.70554e-25
1.67107e-23
8.63311e-23
9.21254e-24
1.71639e-21
3.82625e-20
2.6475e-19
2.30674e-18
6.56369e-19
7.28131e-18
1.07101e-16
-1.05721e-16
7.89173e-17
-4.5517e-16
4.31725e-15
-7.88878e-15
-1.40508e-14
-3.45157e-14
1.81602e-14
5.58304e-13
2.94703e-12
9.28717e-12
2.61009e-11
5.69045e-11
1.05621e-10
1.74351e-10
2.52497e-10
2.90475e-10
1.61841e-06
-4.55858e-12
-2.7918e-47
4.36172e-11
7.60102e-10
-2.7533e-05
-1.46396e-10
3.20268e-10
2.50783e-10
1.57671e-10
8.84498e-11
4.47951e-11
1.82405e-11
5.92643e-12
1.53694e-12
1.57536e-13
-2.93093e-14
-2.85598e-14
-9.92916e-15
-2.61981e-15
2.53809e-15
-9.74369e-16
4.79392e-16
-1.19675e-16
-4.92087e-17
2.57201e-18
-3.52865e-18
-1.0651e-18
-1.05795e-19
-1.52572e-20
2.92582e-22
-9.78093e-23
-5.56247e-23
-3.39089e-24
1.73117e-25
-4.06933e-26
9.12779e-28
3.24632e-28
-1.84625e-29
-6.86875e-31
2.00597e-31
-1.00051e-32
-1.0147e-33
-5.38698e-35
2.56132e-35
9.37439e-37
2.04844e-38
-1.75637e-39
1.72057e-41
-1.0443e-42
-9.51602e-48
-1.59173e-46
-1.70986e-45
2.32916e-45
6.25255e-43
1.25859e-41
1.54976e-40
3.90892e-40
-2.80334e-38
-6.86518e-37
-8.56442e-36
-2.90566e-35
1.06847e-33
2.99662e-32
3.20455e-31
7.26449e-31
-4.50734e-29
-8.65214e-28
-7.20028e-27
1.74066e-26
1.15816e-24
1.45992e-23
5.9154e-23
-7.44858e-22
-1.52084e-20
-8.61651e-20
4.58926e-19
9.96659e-18
4.83552e-17
-1.96074e-16
-3.40757e-15
-8.79338e-15
9.12884e-14
3.93021e-13
-1.79012e-12
3.33785e-10
2.9143e-10
2.00361e-10
1.2026e-10
6.43966e-11
2.92014e-11
1.03085e-11
3.21233e-12
5.75883e-13
6.78686e-15
-4.15464e-14
-1.56353e-14
-8.64468e-15
5.06769e-15
-6.51489e-16
1.53255e-16
-1.41477e-16
1.18317e-16
9.6662e-18
3.27264e-19
2.57235e-18
3.04282e-19
4.29276e-20
2.27593e-21
-6.43418e-23
8.71964e-23
2.00798e-23
-4.18325e-25
6.3956e-26
6.81533e-27
-9.90084e-28
-1.319e-29
7.68979e-30
-6.0274e-31
-1.60945e-32
6.40381e-33
2.04831e-34
-5.03576e-35
-4.85316e-36
-1.84628e-37
1.36251e-39
2.10473e-45
-4.24053e-47
-5.4433e-46
-3.43591e-45
8.34963e-44
3.16166e-42
4.64651e-41
3.78059e-40
-3.19281e-39
-1.55482e-37
-2.60851e-36
-2.19973e-35
1.00711e-34
6.47107e-33
1.01271e-31
7.69206e-31
-5.1945e-30
-2.15498e-28
-2.7906e-27
-1.02724e-26
2.21229e-25
4.27642e-24
3.70421e-23
-2.36981e-23
-3.77129e-21
-4.34061e-20
-4.8742e-20
2.74499e-18
2.55659e-17
2.86127e-17
-1.08682e-15
-6.91064e-15
9.9338e-15
2.47867e-13
1.8665e-14
-4.8766e-12
1.1614e-11
3.79921e-11
-5.54363e-10
2.03312e-09
5.92578e-09
-1.0438e-07
5.89242e-07
7.82634e-09
-3.03995e-08
-3.20763e-08
-5.56097e-10
-5.92645e-44
7.15135e-45
-6.44454e-44
9.26084e-44
1.14758e-41
1.49174e-40
0.000277451
0.982244
1.00991
1.00371
1.00638
1.01397
1.00125
1.00491
0.999712
1.00021
0.999713
0.999455
0.999923
0.999743
1.00001
0.999978
1.00002
1.00003
1
1.00001
0.999999
1
0.999999
0.999998
1
0.999999
1
1
1
1
1
1
1
1
1
1
1
1
1
1
1
1
1
1
1
1
1
1
1
1
1
1
1
1
1
1
1
1
1
1
1
1
1
1
1
1
1
1
1
1
1
1
1
1
1
1
1
1
1
1
1
1
1
1
1
1
1
1
1
1
1
1
1
1
1
1
1
1
1
1
1
1
1
1
1
1
1
1
1
1
1
1
1
1
1
1
1
1
1
1
1
1
1
1
1
1
1
1
1
1
1
1
1
1
1
1
1
1
1
1
1
1
1
1
1
1
1
1
1
1
1
1
1
1
1
1
1
1
1
1
1
1
1
1
1
1
1
1
1
1
1
1
1
1
1
1
1
1
1
1
1
1
1
1
1
1
1
1
1
1
1
8.07657e-41
-1.1163e-05
-1.08067e-11
-9.58187e-44
9.23218e-10
2.07555e-11
-3.40991e-09
2.86252e-09
1.07754e-06
6.57925e-08
-4.30687e-08
-2.56293e-08
5.83645e-09
8.16263e-09
7.59291e-09
4.30573e-10
5.67611e-10
-2.21815e-10
-1.11095e-10
-1.96181e-47
3.82971e-11
5.25001e-11
4.49567e-10
-3.60579e-12
-7.95196e-13
1.74353e-13
4.00346e-14
-1.2185e-15
-1.16377e-15
-1.08009e-16
9.04498e-18
2.68888e-18
2.32726e-19
-1.02334e-20
-3.75827e-21
-3.17616e-22
-1.39046e-24
2.5934e-24
3.01841e-25
1.4718e-26
-6.75897e-28
-1.63761e-28
-1.34274e-29
-3.29544e-31
3.69959e-32
5.98977e-33
3.70024e-34
7.32094e-36
-9.8194e-37
-1.35344e-37
-7.83387e-39
-1.62145e-40
1.6584e-41
2.17297e-42
1.31209e-43
4.0367e-45
-5.63388e-47
-1.67005e-05
-2.4983e-05
1.80914e-41
2.19446e-43
5.74786e-45
-1.13131e-43
-5.62531e-43
2.06064e-41
1.52953e-41
2.44574e-41
1.73023e-40
2.33277e-45
1.12472e-44
1.58034e-39
-2.48144e-37
-5.52557e-36
-7.52725e-35
2.70061e-34
8.24478e-33
-8.14043e-33
-7.64317e-31
1.10239e-29
1.00149e-29
-1.33692e-27
7.48181e-27
1.20299e-25
-7.11949e-25
2.46956e-23
1.21499e-22
-6.35869e-23
2.02927e-21
5.90448e-20
3.95616e-19
3.73682e-18
2.30101e-18
9.14864e-18
1.78948e-16
-1.0834e-16
-6.76879e-17
-2.365e-16
6.01857e-15
-1.29884e-14
-2.36015e-14
-5.49743e-14
4.2471e-14
1.02939e-12
5.04919e-12
1.59427e-11
4.37509e-11
9.31499e-11
1.70397e-10
2.8333e-10
3.9808e-10
4.99309e-10
-1.62924e-06
-7.78253e-06
1.07713e-06
1
1
1
1
1
1
1
1
1
1
0.999999
0.999999
1
1
1
1
1
1
0.999999
1
0.999996
0.999996
1
0.999998
1.00001
1
1.00001
1.00001
1.00001
1.00002
0.999992
1.00001
0.999895
0.999923
0.999852
0.999834
0.999993
0.999896
1.00035
1.00018
1.00083
1.00065
1.00116
1.00119
1.00073
1.00128
0.998916
1.0003
0.994681
0.997395
0.986803
0.991349
0.974786
0.981129
0.956491
0.966043
0.930455
0.943021
0.897092
0.912777
0.85588
0.87457
0.807768
0.828998
0.754391
0.777301
0.695462
0.720371
0.633544
0.65914
0.56922
0.594612
0.506377
0.531159
0.445576
0.468556
0.387697
0.410225
0.332675
0.353233
0.282199
0.300969
0.235695
0.252678
0.19554
0.210082
0.16026
0.172822
0.129434
0.140348
0.104203
0.113097
0.083037
0.0903907
0.0655723
0.0715944
0.0511608
0.0561418
0.039333
0.0433234
0.0303223
0.0333139
0.0231447
0.0255742
0.0173652
0.0192583
0.0130524
0.0144797
0.00968375
0.0107453
0.00716847
0.00799356
0.00523704
0.00584569
0.00380062
0.00425651
0.00272162
0.00306446
0.00196303
0.00220411
0.00139799
0.00157509
0.00098286
0.00111217
0.000695564
0.000785768
0.000487225
0.00055142
0.000339333
0.000384527
0.000233824
0.000265693
0.00016106
0.000183433
0.000110158
0.000125413
7.50468e-05
8.56996e-05
5.04271e-05
5.77691e-05
3.42357e-05
3.91437e-05
2.29081e-05
2.61471e-05
1.53183e-05
1.75929e-05
1.01243e-05
1.16187e-05
6.65024e-06
7.66189e-06
4.33439e-06
5.00651e-06
2.84672e-06
3.28311e-06
1.86304e-06
2.1463e-06
1.19343e-06
1.38362e-06
7.75183e-07
8.97174e-07
4.93141e-07
5.72009e-07
3.191e-07
3.69535e-07
2.03223e-07
2.35033e-07
1.29984e-07
1.50888e-07
8.21127e-08
9.53162e-08
5.11896e-08
5.95865e-08
3.20883e-08
3.73941e-08
2.01585e-08
2.34908e-08
1.25764e-08
1.46711e-08
7.73968e-09
9.08329e-09
4.81112e-09
5.63061e-09
3.03043e-09
3.53734e-09
1.92654e-09
2.23495e-09
3.09841e-05
-1.13947e-05
4.22471e-10
-0.00459306
-4.50444e-10
-5.6491e-10
-0.000867393
7.78037e-05
6.15235e-10
-1.09465e-47
0.572277
-3.72989e-47
-1.23605e-42
0.872928
9.90771e-10
1.53708e-09
1.435e-10
6.44666e-07
-8.18406e-08
-7.86876e-44
1.50285e-06
6.27263e-11
4.88269e-10
1.97651e-12
-2.52871e-12
1.86798e-14
1.10912e-13
7.80722e-15
-2.12706e-15
-4.3684e-16
-8.1948e-18
6.60194e-18
9.21739e-19
2.70414e-20
-8.3497e-21
-1.24141e-21
-5.71821e-23
4.39079e-24
1.01567e-24
7.80535e-26
9.93194e-28
-4.12891e-28
-5.27817e-29
-2.6488e-30
2.73424e-32
1.78903e-32
1.62138e-33
6.8242e-35
-1.09079e-36
-4.24454e-37
-3.4972e-38
-1.43801e-39
1.27573e-41
6.66055e-42
5.78179e-43
2.63815e-44
3.93929e-46
1.23673e-11
3.15793e-46
5.32971e-10
0.0179633
-0.003371
2.29467e-43
-1.35328e-43
-1.42243e-47
0.921152
3.84123e-38
2.61385e-38
-2.20076e-39
-3.26006e-37
-2.63561e-39
1.18384e-36
3.22937e-35
-5.90675e-35
-1.04345e-33
-1.51959e-32
2.06362e-31
-8.56183e-31
-2.9946e-29
3.6475e-28
1.55425e-27
-5.48404e-26
1.46658e-25
-3.40417e-24
-7.48546e-23
-1.37131e-22
6.21287e-22
-1.85161e-20
-1.43291e-19
-1.4438e-18
-5.96085e-18
3.83776e-18
-6.29339e-17
-2.36609e-16
7.49101e-16
-1.49597e-15
4.48734e-15
-6.69524e-15
-1.37249e-14
-4.21382e-14
-2.81762e-14
3.13457e-13
2.53701e-12
9.20089e-12
2.7891e-11
6.56933e-11
1.27432e-10
2.22103e-10
3.4893e-10
0.000195338
1.46012e-36
1.27643e-09
0.0738136
0.000138865
4.59518e-10
3.24285e-10
1.94317e-10
1.05234e-10
4.90639e-11
1.75338e-11
5.51946e-12
1.05352e-12
2.24837e-14
-6.6864e-14
-2.61918e-14
-1.43717e-14
7.35578e-15
-5.11153e-16
3.19689e-17
-1.61991e-16
2.00367e-16
1.2296e-17
1.8211e-18
4.18381e-18
4.54315e-19
6.61357e-20
2.88769e-21
-1.83991e-22
1.17581e-22
3.03436e-23
-6.54586e-25
1.25598e-25
1.11133e-26
-1.53919e-27
1.25178e-30
1.44776e-29
5.16225e-47
1.87855e-44
4.9548e-43
6.80311e-42
3.68354e-41
-8.79226e-40
-2.88043e-38
-4.23967e-37
-2.3679e-36
4.08783e-35
1.35493e-33
1.8326e-32
8.46064e-32
-1.68578e-30
-4.61287e-29
-4.6675e-28
-8.31513e-28
6.03301e-26
9.899e-25
6.49119e-24
-2.71654e-23
-1.10997e-21
-1.01229e-20
-6.68251e-21
8.25784e-19
7.84164e-18
1.15506e-17
-3.87617e-16
-2.95783e-15
1.4234e-15
1.23433e-13
-1.09038e-07
-6.76958e-10
4.00012e-10
2.53805e-10
1.45062e-10
7.41302e-11
3.09704e-11
1.01184e-11
2.7122e-12
3.03074e-13
-4.36809e-14
-4.82409e-14
-1.52922e-14
-6.15243e-15
4.79264e-15
-1.66827e-15
8.15771e-16
-2.43991e-16
-7.40729e-17
4.03855e-18
-6.24491e-18
-1.63129e-18
-1.57175e-19
-2.1399e-20
7.54033e-22
-1.04307e-22
-8.12991e-23
-4.78312e-24
2.04898e-25
-6.64566e-26
1.09515e-27
4.44681e-28
-3.52318e-29
-0.00678227
-0.0031757
-0.00995505
-1.76929e-30
2.58208e-31
-1.50275e-32
-1.35462e-33
-1.03204e-34
3.82515e-35
2.23453e-45
1.03496e-43
2.01769e-42
1.98559e-41
-3.26286e-41
-5.85633e-39
-1.23063e-37
-1.1902e-36
8.54286e-37
2.78449e-34
5.53127e-33
4.76009e-32
-7.11605e-32
-1.03886e-29
-1.59981e-28
-1.06233e-27
7.89621e-27
2.60087e-25
2.925e-24
7.23198e-24
-2.40202e-22
-3.85362e-21
-1.91674e-20
1.5134e-19
2.6871e-18
1.53712e-17
-6.10956e-17
-1.27951e-15
-4.10935e-15
3.11589e-14
2.75515e-13
-3.14758e-13
-6.04481e-12
-6.70059e-47
0.64697
3.02006e-46
3.94086e-07
-1.16306e-07
-5.69097e-47
3.12696e-13
-2.49864e-12
-5.60333e-12
-1.24238e-46
2.74076e-45
-7.68703e-31
-2.10473e-32
9.41966e-33
3.32863e-34
5.24878e-40
-7.63592e-35
-7.07718e-36
0.00045649
-8.00728e-08
6.19177e-10
-9.82139e-31
1.00293
1.00828
1.01211
1.00307
1.00796
1.00022
1.00185
0.999626
0.999683
0.999808
0.999572
0.999981
0.999882
1.00002
1.00002
1.00001
1.00003
1
1.00001
0.999999
0.999999
0.999999
0.999998
1
0.999999
1
1
1
1
1
1
1
1
1
1
1
1
1
1
1
1
1
1
1
1
1
1
1
1
1
1
1
1
1
1
1
1
1
1
1
1
1
1
1
1
1
1
1
1
1
1
1
1
1
1
1
1
1
1
1
1
1
1
1
1
1
1
1
1
1
1
1
1
1
1
1
1
1
1
1
1
1
1
1
1
1
1
1
1
1
1
1
1
1
1
1
1
1
1
1
1
1
1
1
1
1
1
1
1
1
1
1
1
1
1
1
1
1
1
1
1
1
1
1
1
1
1
1
1
1
1
1
1
1
1
1
1
1
1
1
1
1
1
1
1
1
1
1
1
1
1
1
1
1
1
1
1
1
1
1
1
1
1
1
0.0436915
1
-1.36516e-47
0.113514
6.34289e-46
7.95266e-10
0.228572
5.84145e-09
-1.89152e-10
5.09889e-07
-2.22909e-08
1.54411e-43
-4.74718e-10
-5.31713e-10
1.22849e-06
1.81454e-06
1.38949e-06
1.294e-45
2.07548e-11
-3.62038e-12
4.88001e-09
2.71656e-07
-1.13408e-07
-1.48346e-13
9.53195e-14
1.29418e-14
-8.10125e-16
-3.94545e-16
-3.18145e-17
2.15316e-18
6.97172e-19
5.49408e-20
-1.44034e-21
-7.64239e-22
-7.2123e-23
-1.66161e-24
3.91921e-25
5.74615e-26
2.98736e-27
-3.94821e-29
-2.68467e-29
-2.37416e-30
-9.38637e-32
3.62093e-33
8.31314e-34
5.98992e-35
2.00852e-36
-9.53381e-38
-1.94652e-38
-1.43092e-39
-5.08145e-41
8.78057e-43
2.38612e-43
4.44735e-11
5.67677e-11
6.99862e-10
-0.00734108
8.19031e-45
-1.1384e-34
6.47543e-10
-3.35984e-39
-4.11006e-37
-0.000126951
1.7373e-44
-7.87932e-36
4.60769e-35
5.3459e-35
-1.13393e-34
4.59599e-34
1.14621e-32
-1.31438e-32
2.50982e-31
3.26706e-31
-9.38679e-31
4.49117e-45
3.61422e-45
1.9985e-29
4.66847e-29
-2.10564e-27
1.23085e-26
2.13172e-25
-1.05353e-24
3.83812e-23
1.60162e-22
-2.17597e-22
2.2722e-21
8.98707e-20
5.887e-19
6.20118e-18
5.88361e-18
1.00324e-17
2.91356e-16
-5.06356e-17
-4.54247e-16
4.83288e-16
8.13084e-15
-2.08117e-14
-3.96861e-14
-8.83727e-14
9.31962e-14
1.84734e-12
8.71908e-12
2.70002e-11
7.34822e-11
1.52541e-10
2.77765e-10
4.52682e-10
5.40814e-43
-2.3311e-43
1.78e-36
2.20507e-36
-9.45325e-36
1
0.0619397
1
1
1
1
1
1
0.999999
1
1
1
1
1
1
1
0.999999
1
0.999997
0.999997
0.999999
0.999997
1
1
1.00001
1.00001
1.00002
1.00002
0.999998
1.00001
0.9999
0.999932
0.99986
0.999849
0.99999
0.999892
1.00029
1.00012
1.00072
1.00054
1.00108
1.00107
1.00086
1.00128
0.999435
1.00062
0.995723
0.998254
0.988912
0.993089
0.977873
0.984229
0.96087
0.970192
0.936479
0.948763
0.90457
0.920277
0.864807
0.883222
0.818529
0.839689
0.765886
0.789486
0.707315
0.732634
0.646722
0.671989
0.581676
0.608726
0.518372
0.543566
0.457292
0.481783
0.398634
0.422372
0.343054
0.364876
0.292167
0.312154
0.24407
0.262182
0.202971
0.218286
0.166793
0.180398
0.134851
0.146438
0.109092
0.118281
0.0870591
0.0950164
0.0686369
0.0751672
0.0538872
0.0592193
0.0414946
0.0459117
0.0319033
0.035133
0.0244652
0.0270588
0.0183947
0.0204888
0.0137967
0.0153239
0.0102378
0.0114192
0.00757859
0.00848478
0.00554361
0.00621843
0.0040538
0.00455555
0.00290545
0.00328553
0.00209706
0.00235946
0.00149946
0.00169761
0.00105325
0.00119496
0.000749666
0.000845764
0.000524572
0.000596383
0.000362559
0.000413108
0.000251236
0.000286597
0.000173736
0.000198737
0.000118606
0.000135751
8.1323e-05
9.31473e-05
5.45935e-05
6.28622e-05
3.70194e-05
4.23696e-05
2.46954e-05
2.84046e-05
1.64268e-05
1.89377e-05
1.09064e-05
1.25809e-05
7.23439e-06
8.36534e-06
4.71506e-06
5.45564e-06
3.11782e-06
3.60489e-06
2.02367e-06
2.352e-06
1.29611e-06
1.50831e-06
8.51665e-07
9.85124e-07
5.40678e-07
6.30991e-07
3.46664e-07
4.0215e-07
2.20522e-07
2.568e-07
1.40617e-07
1.64224e-07
8.85861e-08
1.03373e-07
5.61607e-08
6.57961e-08
3.472e-08
4.07813e-08
2.20856e-08
2.58099e-08
1.38674e-08
1.63212e-08
8.59057e-09
1.01103e-08
5.38002e-09
6.30254e-09
3.4201e-09
4.03477e-09
2.13415e-09
2.53523e-09
0.000126298
0.000292129
0.000347145
0.000322975
0.756643
-2.11346e-30
2.54308e-29
-1.62694e-43
6.01862e-43
-1.24975e-10
-7.80522e-10
6.58319e-10
7.70535e-10
8.2774e-10
5.45924e-10
7.20551e-10
-1.70568e-43
-2.6819e-43
4.47008e-38
-5.05437e-37
2.80091e-45
3.45432e-45
1.56453e-44
-1.00039e-12
-7.65873e-13
-0.00272339
-0.00153449
-2.01693e-43
1.4291e-44
6.54469e-46
1.88321e-41
3.48383e-41
2.97291e-41
9.18575e-10
-8.02195e-11
9.60061e-12
-1.06227e-25
4.56634e-25
-1.82292e-05
1.44551e-09
2.18267e-09
-3.17915e-21
-1.60208e-21
1.04355e-09
9.52728e-09
1.34173e-11
1.60601e-12
6.99428e-19
2.22345e-19
6.30201e-10
-1.9737e-17
-2.32862e-18
-4.87656e-12
-2.62457e-12
9.71682e-14
4.38791e-14
1.74618e-15
-7.99991e-16
-1.36445e-16
1.99965e-18
1.56269e-18
1.92444e-19
7.73713e-21
-1.9458e-21
-2.55333e-22
-1.51973e-23
8.32993e-25
1.6942e-25
1.45173e-26
3.94226e-28
-6.04565e-29
-8.685e-30
-5.39625e-31
-5.9894e-33
2.25677e-33
2.3508e-34
1.30618e-35
8.15396e-38
-5.03232e-38
-5.65056e-39
-3.09563e-40
-4.6375e-42
5.9834e-43
7.36415e-11
7.11075e-44
7.73322e-10
-4.11048e-16
-2.45219e-18
-2.13053e-18
-2.96349e-12
8.14247e-14
-1.61145e-15
9.18635e-15
1.33284e-09
0.935175
3.57795e-41
1.32811e-40
-3.99248e-39
-0.00740284
6.27849e-09
0.96961
-3.57526e-30
6.18001e-44
0.80381
1.15043e-39
-1.17903e-34
-1.13715e-33
-2.26347e-32
-6.34851e-29
-5.37462e-29
0.0569193
3.74482e-29
0.202537
4.78747e-28
1.86019e-27
-8.46038e-26
1.33803e-25
-4.34235e-24
-1.04612e-22
-1.50944e-22
1.36712e-21
-2.34978e-20
-2.09766e-19
6.90411e-18
-1.02907e-17
5.08942e-18
-9.64189e-17
-4.30889e-16
1.20272e-15
-2.39607e-15
7.97635e-15
-1.28406e-14
-2.10162e-14
-7.04358e-14
-3.6982e-14
5.93301e-13
4.39209e-12
1.5723e-11
4.6548e-11
1.08258e-10
2.06993e-10
3.57651e-10
9.46923e-10
-7.7033e-06
-2.00837e-05
-3.86007e-06
3.39295e-41
7.04992e-05
3.3612e-06
0.266977
5.1935e-10
3.15993e-10
1.73165e-10
8.30873e-11
2.99887e-11
9.55171e-12
1.94746e-12
6.73352e-14
-1.08556e-13
-4.41303e-14
-2.3442e-14
9.99164e-15
8.49178e-17
-3.38824e-16
-1.19552e-16
3.24039e-16
1.47997e-17
6.70916e-19
9.94626e-20
6.69307e-43
-3.47129e-43
-2.27314e-40
-4.87364e-39
-9.95085e-24
-5.49604e-38
-1.31629e-37
9.2889e-36
2.03389e-34
2.44697e-33
3.1146e-33
-3.99395e-31
-7.7625e-30
-7.08725e-29
1.18958e-28
1.12236e-26
4.08425e-10
2.35435e-10
1.22494e-10
5.18226e-11
1.72794e-11
4.7426e-12
5.83982e-13
-6.33323e-14
-8.08339e-14
-2.34872e-14
-1.24224e-14
8.6223e-15
-2.72604e-15
1.34006e-15
-4.54316e-16
-1.12343e-16
5.68732e-18
-0.000567361
-0.00980062
-1.09185e-17
-2.31649e-19
-2.84109e-20
1.65334e-21
-8.98275e-23
-1.14186e-22
-6.39913e-24
-1.19098e-16
2.182e-25
-1.01963e-25
1.25473e-27
-1.44001e-33
-6.49931e-40
-1.96624e-34
2.23418e-43
1.51114e-42
-2.98041e-41
-1.1505e-39
-1.82682e-38
-1.34307e-37
9.95353e-37
4.7992e-35
7.83233e-34
5.39876e-33
-5.20834e-32
-1.95068e-30
-2.6591e-29
-1.13411e-28
2.00847e-27
5.12895e-26
-1.00487e-15
-3.24223e-16
1.74925e-26
-7.80071e-22
4.54737e-25
-6.19426e-12
3.96326e-20
4.28823e-14
3.38376e-18
1.99746e-13
1.1903e-13
1.85981e-18
1.67127e-21
-2.33145e-22
-5.91361e-23
1.69641e-25
2.97421e-21
-4.20825e-22
1.51577e-22
4.5338e-23
-1.00364e-24
2.26138e-25
-2.23359e-27
-2.96973e-32
1.33818e-32
5.39768e-34
6.3373e-38
-2.15413e-32
6.01254e-28
5.26273e-18
-2.29259e-05
1.977e-12
0.000244635
1.00755
1.00503
1.00848
1.00124
1.00397
0.999701
1.00032
0.999651
0.999415
0.999888
0.999679
1.00001
0.99995
1.00002
1.00003
1.00001
1.00002
1
1
0.999999
0.999998
0.999999
0.999999
1
1
1
1
1
1
1
1
1
1
1
1
1
1
1
1
1
1
1
1
1
1
1
1
1
1
1
1
1
1
1
1
1
1
1
1
1
1
1
1
1
1
1
1
1
1
1
1
1
1
1
1
1
1
1
1
1
1
1
1
1
1
1
1
1
1
1
1
1
1
1
1
1
1
1
1
1
1
1
1
1
1
1
1
1
1
1
1
1
1
1
1
1
1
1
1
1
1
1
1
1
1
1
1
1
1
1
1
1
1
1
1
1
1
1
1
1
1
1
1
1
1
1
1
1
1
1
1
1
1
1
1
1
1
1
1
1
1
1
1
1
1
1
1
1
1
1
1
1
1
1
1
1
1
1
1
1.50543e-19
-3.91284e-10
5.15976e-41
-2.48528e-12
-7.98592e-42
1.03992e-45
-3.07253e-32
3.61087e-26
-3.21922e-08
-4.3974e-30
-4.05695e-25
-1.56692e-25
1.27589e-20
-1.27735e-23
5.60682e-14
-3.11078e-13
-1.173e-12
-1.12016e-12
4.62556e-19
3.94847e-15
-6.30883e-19
3.04444e-19
1.20157e-14
-1.56944e-13
8.77472e-14
-6.95741e-18
-4.68396e-18
1.86285e-26
1.38886e-14
1.33701e-14
-3.14244e-18
8.22558e-26
-3.05177e-17
-2.54673e-17
1.97754e-11
1.42026e-11
5.00304e-20
1.50473e-19
4.3862e-20
3.30381e-19
3.79867e-19
8.65602e-10