/*--------------------------------*- C++ -*----------------------------------*\
  =========                 |
  \\      /  F ield         | OpenFOAM: The Open Source CFD Toolbox
   \\    /   O peration     | Website:  https://openfoam.org
    \\  /    A nd           | Version:  7
     \\/     M anipulation  |
\*---------------------------------------------------------------------------*/
FoamFile
{
    version     2.0;
    format      ascii;
    class       volScalarField;
    location    "0.7";
    object      T;
}
// * * * * * * * * * * * * * * * * * * * * * * * * * * * * * * * * * * * * * //

dimensions      [0 0 0 1 0 0 0];

internalField   nonuniform List<scalar> 
10000
(
0.5
0.0669146
-0.0353169
-0.0277115
-0.00789976
0.00112931
0.00220711
0.000963794
3.88563e-05
-0.000206219
-0.000130475
-2.60559e-05
1.76156e-05
1.74837e-05
6.08561e-06
-9.06071e-07
-2.20759e-06
-1.13469e-06
-1.06163e-07
2.47859e-07
1.87024e-07
4.9395e-08
-2.13888e-08
-2.77866e-08
-1.17496e-08
4.15033e-10
3.66278e-09
2.25287e-09
3.9625e-10
-4.00521e-10
-3.77204e-10
-1.28469e-10
2.72484e-11
5.58408e-11
2.85469e-11
2.15683e-12
-7.08101e-12
-5.31098e-12
-1.40443e-12
6.25818e-13
7.86597e-13
2.87733e-13
-7.27888e-14
-1.35506e-13
-4.33215e-14
5.31533e-14
9.30937e-14
8.2481e-14
4.82707e-14
1.24503e-14
-1.37199e-14
-2.70375e-14
-2.89159e-14
-2.30628e-14
-1.38377e-14
-4.94517e-15
1.38012e-15
4.51271e-15
5.01029e-15
3.95397e-15
2.38274e-15
9.89072e-16
6.98733e-17
-3.68707e-16
-4.64037e-16
-3.7931e-16
-2.39959e-16
-1.16577e-16
-3.45812e-17
7.46251e-18
2.17266e-17
2.11191e-17
1.49963e-17
8.54429e-18
3.81007e-18
1.05151e-18
-2.12099e-19
-5.87849e-19
-5.4824e-19
-3.7837e-19
-2.1377e-19
-9.85896e-20
-3.3032e-20
-2.59867e-21
7.73704e-21
8.70579e-21
6.46682e-21
3.89508e-21
1.97859e-21
8.25448e-22
2.41584e-22
-6.44411e-25
-7.0703e-23
-6.98622e-23
-4.88463e-23
-2.83491e-23
-1.41372e-23
-5.95024e-24
-1.94891e-24
8.88544e-26
0.933085
0.5
0.14482
-0.0139075
-0.0411718
-0.0230289
-0.00507433
0.00215701
0.00250723
0.00101071
-9.38734e-08
-0.000255324
-0.000158213
-3.18213e-05
2.20241e-05
2.24005e-05
8.17946e-06
-9.48178e-07
-2.86443e-06
-1.56602e-06
-2.00131e-07
3.13491e-07
2.58847e-07
7.77035e-08
-2.39625e-08
-3.79444e-08
-1.77304e-08
-5.20297e-10
4.83208e-09
3.30976e-09
7.4725e-10
-4.8499e-10
-5.38959e-10
-2.10532e-10
2.14897e-11
7.682e-11
4.43026e-11
6.39043e-12
-8.90761e-12
-7.68347e-12
-2.34677e-12
7.22137e-13
1.04965e-12
2.75007e-13
-3.48345e-13
-4.81822e-13
-2.99193e-13
-4.86003e-14
1.3052e-13
2.06117e-13
1.99422e-13
1.45348e-13
7.56721e-14
1.3697e-14
-2.75464e-14
-4.51273e-14
-4.37423e-14
-3.16822e-14
-1.69355e-14
-4.81627e-15
2.55322e-15
5.45951e-15
5.36427e-15
3.86922e-15
2.14855e-15
8.11565e-16
2.00479e-17
-3.14609e-16
-3.63802e-16
-2.82506e-16
-1.72152e-16
-8.18253e-17
-2.49455e-17
3.07253e-18
1.23785e-17
1.22002e-17
8.67474e-18
4.98396e-18
2.30085e-18
7.38731e-19
7.80137e-21
-2.34006e-19
-2.44655e-19
-1.7718e-19
-1.04391e-19
-5.12487e-20
-1.98665e-20
-4.45975e-21
1.50829e-21
2.85077e-21
2.40753e-21
1.56531e-21
8.56247e-22
3.97402e-22
1.47929e-22
3.30943e-23
-9.06577e-24
-1.81033e-23
-1.51448e-23
-9.25823e-24
1.03532
0.85518
0.5
0.182448
0.00830364
-0.0419281
-0.032441
-0.0120093
3.84408e-05
0.00307766
0.00201936
0.000522644
-0.000189734
-0.000261936
-0.000118925
-6.07707e-06
2.86043e-05
2.02421e-05
5.19525e-06
-2.29056e-06
-2.95623e-06
-1.27806e-06
8.46554e-09
3.71768e-07
2.40892e-07
5.03709e-08
-3.68802e-08
-3.89006e-08
-1.47959e-08
1.67176e-09
5.45502e-09
3.1046e-09
4.35551e-10
-6.33152e-10
-5.48314e-10
-1.74363e-10
4.81032e-11
8.39713e-11
4.13425e-11
2.50389e-12
-1.02885e-11
-7.00891e-12
-1.04033e-12
1.71959e-12
1.45174e-12
1.6036e-13
-7.87589e-13
-1.05158e-12
-8.38588e-13
-4.47097e-13
-7.8649e-14
1.74432e-13
2.9173e-13
2.93885e-13
2.22548e-13
1.2395e-13
3.51273e-14
-2.37773e-14
-4.94722e-14
-4.9851e-14
-3.67537e-14
-2.0455e-14
-7.16331e-15
9.37653e-16
4.33372e-15
4.63879e-15
3.49419e-15
2.05065e-15
8.91598e-16
1.79186e-16
-1.50608e-16
-2.3551e-16
-2.01501e-16
-1.32123e-16
-6.9466e-17
-2.72767e-17
-4.60829e-18
4.59858e-18
6.44293e-18
5.21941e-18
3.31017e-18
1.72679e-18
7.12556e-19
1.80166e-19
-4.11939e-20
-9.86374e-20
-8.76309e-20
-5.85752e-20
-3.25439e-20
-1.51347e-20
-5.485e-21
-1.01721e-21
5.89306e-22
8.79021e-22
7.00184e-22
4.40207e-22
2.35133e-22
1.07172e-22
4.0128e-23
3.43999e-24
1.02771
1.01391
0.817552
0.5
0.206389
0.0268058
-0.0388677
-0.0384381
-0.0184166
-0.00302402
0.00284105
0.00282245
0.00118552
4.2633e-05
-0.000296282
-0.000211922
-6.02234e-05
1.88442e-05
2.95095e-05
1.43558e-05
1.17969e-06
-3.31264e-06
-2.541e-06
-7.3481e-07
2.46588e-07
3.7721e-07
1.7883e-07
8.57305e-09
-4.67553e-08
-3.36151e-08
-8.56672e-09
4.24368e-09
5.36574e-09
2.31176e-09
-5.86217e-11
-7.29437e-10
-4.6913e-10
-9.48928e-11
7.66692e-11
7.88235e-11
2.89834e-11
-4.33293e-12
-1.08355e-11
-4.57198e-12
1.74499e-12
3.81025e-12
2.71231e-12
7.00909e-13
-8.37524e-13
-1.53131e-12
-1.53732e-12
-1.14619e-12
-6.15997e-13
-1.31787e-13
2.00355e-13
3.50459e-13
3.48803e-13
2.57439e-13
1.39884e-13
4.06334e-14
-2.10042e-14
-4.58958e-14
-4.54359e-14
-3.28573e-14
-1.81605e-14
-6.67054e-15
1.28492e-16
2.96001e-15
3.30602e-15
2.52514e-15
1.51103e-15
6.94443e-16
1.88537e-16
-5.36806e-17
-1.27466e-16
-1.17965e-16
-8.10267e-17
-4.49743e-17
-1.96671e-17
-5.41605e-18
9.23418e-19
2.75575e-18
2.55736e-18
1.75147e-18
9.85005e-19
4.56129e-19
1.57907e-19
1.96677e-20
-2.82888e-20
-3.44392e-20
-2.61103e-20
-1.59171e-20
-8.20569e-21
-3.52476e-21
-1.12602e-21
-1.0471e-22
2.15829e-22
2.41166e-22
1.75994e-22
9.61217e-23
1.0079
1.04117
0.991696
0.793611
0.5
0.223365
0.042154
-0.0343031
-0.0421139
-0.0239644
-0.00647534
0.00197761
0.00332499
0.00186777
0.000400612
-0.000245072
-0.000285991
-0.000129611
-8.12739e-06
3.15022e-05
2.39228e-05
7.25577e-06
-1.97863e-06
-3.44893e-06
-1.76137e-06
-1.8454e-07
3.9124e-07
3.18273e-07
9.9371e-08
-2.70433e-08
-4.76357e-08
-2.40385e-08
-2.00431e-09
5.81838e-09
4.51226e-09
1.29325e-09
-4.82862e-10
-7.12646e-10
-3.34101e-10
-1.13139e-11
9.06025e-11
6.11409e-11
1.08833e-11
-1.27256e-11
-1.16266e-11
-2.12509e-12
4.86981e-12
6.75312e-12
5.21664e-12
2.54739e-12
1.71082e-13
-1.35635e-12
-1.98204e-12
-1.89048e-12
-1.36654e-12
-7.04642e-13
-1.33471e-13
2.27774e-13
3.67496e-13
3.44459e-13
2.40263e-13
1.23332e-13
3.31589e-14
-1.83498e-14
-3.6914e-14
-3.50414e-14
-2.45527e-14
-1.32955e-14
-4.92583e-15
-1.51519e-16
1.79105e-15
2.04656e-15
1.56848e-15
9.46025e-16
4.48224e-16
1.40074e-16
-1.00076e-17
-6.00022e-17
-6.01711e-17
-4.29564e-17
-2.47855e-17
-1.15844e-17
-3.89493e-18
-2.69813e-19
9.70822e-19
1.08082e-18
7.99307e-19
4.77827e-19
2.38893e-19
9.60448e-20
2.47844e-20
-3.7463e-21
-1.10421e-20
-9.89002e-21
-6.61049e-21
-3.69626e-21
-1.7616e-21
-6.87128e-22
-1.85569e-22
5.33618e-23
0.998871
1.02303
1.04193
0.973194
0.776635
0.5
0.236308
0.0551561
-0.0291433
-0.0442026
-0.0286476
-0.0100134
0.000663016
0.00351519
0.00249279
0.000838178
-0.000110139
-0.000325109
-0.00020245
-4.98925e-05
2.37007e-05
3.12705e-05
1.49634e-05
1.26022e-06
-3.52123e-06
-2.80623e-06
-8.96015e-07
2.13495e-07
4.11962e-07
2.18731e-07
2.69773e-08
-4.67859e-08
-3.99562e-08
-1.32134e-08
2.98635e-09
5.99814e-09
3.17805e-09
3.53641e-10
-7.14834e-10
-5.87773e-10
-1.80158e-10
5.47907e-11
8.70879e-11
3.52547e-11
-1.00846e-11
-2.33034e-11
-1.53182e-11
-2.51272e-12
6.25308e-12
9.38603e-12
8.52844e-12
5.74683e-12
2.57149e-12
-5.95093e-14
-1.69064e-12
-2.26748e-12
-2.03262e-12
-1.36915e-12
-6.38361e-13
-7.43583e-14
2.39644e-13
3.3329e-13
2.88437e-13
1.88287e-13
9.03523e-14
2.14231e-14
-1.47144e-14
-2.60937e-14
-2.35886e-14
-1.59776e-14
-8.45361e-15
-3.12416e-15
-1.90471e-16
9.73384e-16
1.13042e-15
8.66759e-16
5.25053e-16
2.54078e-16
8.67738e-17
4.32033e-18
-2.48885e-17
-2.74793e-17
-2.03835e-17
-1.21555e-17
-5.96884e-18
-2.25828e-18
-4.29937e-19
2.6536e-19
4.01622e-19
3.2493e-19
2.05902e-19
1.09431e-19
4.84342e-20
1.61549e-20
1.96266e-21
-2.7119e-21
-3.2362e-21
-2.41464e-21
-1.46628e-21
-6.51697e-22
0.997793
1.00507
1.03244
1.03887
0.957846
0.763692
0.5
0.246668
0.0663827
-0.0238073
-0.0451887
-0.0325522
-0.0134733
-0.000959178
0.00341734
0.00301639
0.00131432
9.733e-05
-0.000320961
-0.000268331
-0.000102053
5.40097e-06
3.42592e-05
2.29965e-05
6.2179e-06
-2.43292e-06
-3.56994e-06
-1.78399e-06
-1.83405e-07
4.05354e-07
3.37003e-07
1.12392e-07
-2.33431e-08
-4.99227e-08
-2.74116e-08
-3.83028e-09
5.63828e-09
5.0288e-09
1.74547e-09
-3.20435e-10
-7.3708e-10
-3.93482e-10
-3.42649e-11
1.00346e-10
7.48486e-11
9.69278e-12
-3.01342e-11
-3.63607e-11
-2.41887e-11
-8.44829e-12
3.45686e-12
9.77024e-12
1.12584e-11
9.4515e-12
5.9991e-12
2.36665e-12
-4.24638e-13
-1.94324e-12
-2.28748e-12
-1.865e-12
-1.14074e-12
-4.62665e-13
-1.88708e-15
2.19313e-13
2.61949e-13
2.0894e-13
1.27645e-13
5.71324e-14
1.15116e-14
-1.05001e-14
-1.64356e-14
-1.41621e-14
-9.28854e-15
-4.80768e-15
-1.76898e-15
-1.48675e-16
4.80023e-16
5.66882e-16
4.35016e-16
2.64507e-16
1.30216e-16
4.74546e-17
6.24188e-18
-9.08229e-18
-1.14052e-17
-8.82445e-18
-5.42946e-18
-2.77685e-18
-1.14045e-18
-3.03542e-19
3.97814e-20
1.31114e-19
1.19432e-19
8.05277e-20
4.52057e-20
2.15022e-20
8.27549e-21
2.02997e-21
-3.12913e-22
-1.05142e-21
0.999036
0.997843
1.01201
1.03844
1.0343
0.944844
0.753332
0.5
0.255249
0.0762288
-0.0184971
-0.0453946
-0.0357829
-0.0167686
-0.00277966
0.00306919
0.00341666
0.00179625
0.000362307
-0.000271062
-0.000319196
-0.000159502
-2.26983e-05
3.14482e-05
3.00039e-05
1.24139e-05
-5.01572e-08
-3.78026e-06
-2.69448e-06
-7.81473e-07
2.5829e-07
4.18758e-07
2.17163e-07
2.59549e-08
-4.75566e-08
-4.11123e-08
-1.4256e-08
2.54813e-09
6.08816e-09
3.43506e-09
5.21813e-10
-6.75499e-10
-6.01878e-10
-1.77864e-10
9.0541e-11
1.35501e-10
6.93516e-11
-4.05209e-12
-4.31802e-11
-4.95484e-11
-3.79327e-11
-2.07393e-11
-4.98163e-12
6.12924e-12
1.16501e-11
1.21989e-11
9.43265e-12
5.35432e-12
1.61805e-12
-8.70021e-13
-1.95801e-12
-1.98546e-12
-1.45664e-12
-8.01316e-13
-2.72905e-13
4.38764e-14
1.72656e-13
1.80512e-13
1.33465e-13
7.65998e-14
3.20153e-14
5.26702e-15
-6.65841e-15
-9.3446e-15
-7.70649e-15
-4.91004e-15
-2.49307e-15
-9.14875e-16
-9.59105e-17
2.16451e-16
2.61267e-16
2.01045e-16
1.22791e-16
6.13931e-17
2.35586e-17
4.52209e-18
-2.85306e-18
-4.33747e-18
-3.52668e-18
-2.23997e-18
-1.18767e-18
-5.19337e-19
-1.6588e-19
-1.20337e-20
3.66714e-20
3.99038e-20
2.89201e-20
1.71209e-20
8.72438e-21
2.8599e-21
0.999961
0.997493
0.999962
1.01842
1.04211
1.02914
0.933617
0.744751
0.5
0.262537
0.0849758
-0.0133115
-0.0450396
-0.0384394
-0.0198576
-0.00471768
0.00251112
0.00368607
0.00225945
0.000669094
-0.000176905
-0.000349474
-0.000217239
-5.89605e-05
2.2113e-05
3.47796e-05
1.91931e-05
3.57793e-06
-3.2318e-06
-3.45354e-06
-1.52336e-06
-4.80484e-08
4.29808e-07
3.22489e-07
9.90334e-08
-2.79455e-08
-5.00146e-08
-2.68089e-08
-3.6305e-09
5.60866e-09
4.99891e-09
1.7381e-09
-3.43916e-10
-7.70728e-10
-3.98672e-10
1.29762e-11
1.89581e-10
1.7351e-10
8.5343e-11
4.93625e-12
-4.17476e-11
-5.75257e-11
-5.27895e-11
-3.71811e-11
-1.83551e-11
-2.00605e-12
8.55112e-12
1.26321e-11
1.1652e-11
7.99139e-12
3.86733e-12
6.74423e-13
-1.11429e-12
-1.67905e-12
-1.48251e-12
-9.81253e-13
-4.83817e-13
-1.31454e-13
5.5769e-14
1.18332e-13
1.10674e-13
7.64512e-14
4.14349e-14
1.62147e-14
2.06656e-15
-3.78716e-15
-4.85126e-15
-3.84901e-15
-2.39119e-15
-1.195e-15
-4.38722e-16
-5.4969e-17
8.97256e-17
1.11671e-16
8.64148e-17
5.30859e-17
2.6939e-17
1.07941e-17
2.58161e-18
-7.17627e-19
-1.51648e-18
-1.31104e-18
-8.61543e-19
-4.72454e-19
-2.17437e-19
-7.8222e-20
-1.45812e-20
8.06285e-21
1.20235e-20
9.51968e-21
1.00021
0.998989
0.996922
1.00302
1.02396
1.0442
1.02381
0.923771
0.737463
0.5
0.268847
0.0928295
-0.00829713
-0.0442768
-0.0406094
-0.0227243
-0.00671456
0.00178129
0.00382595
0.00268654
0.001003
-4.24486e-05
-0.000355818
-0.000270828
-0.000101219
6.15712e-06
3.63676e-05
2.58328e-05
8.25193e-06
-1.80508e-06
-3.89323e-06
-2.32337e-06
-5.09072e-07
3.42816e-07
4.06028e-07
1.88695e-07
1.13186e-08
-4.98253e-08
-3.91121e-08
-1.25733e-08
3.06417e-09
5.97775e-09
3.18616e-09
2.97499e-10
-8.59138e-10
-7.31598e-10
-2.24755e-10
1.38864e-10
2.57534e-10
2.20026e-10
1.28892e-10
4.18934e-11
-2.02655e-11
-5.41377e-11
-6.28408e-11
-5.30656e-11
-3.3658e-11
-1.32591e-11
2.12479e-12
1.0204e-11
1.18247e-11
9.44818e-12
5.65071e-12
2.22725e-12
-2.18499e-14
-1.05882e-12
-1.2324e-12
-9.64916e-13
-5.79951e-13
-2.55485e-13
-5.01814e-14
4.67067e-14
7.1814e-14
6.12318e-14
3.98344e-14
2.04991e-14
7.53781e-15
6.87444e-16
-1.95434e-15
-2.32262e-15
-1.78232e-15
-1.08377e-15
-5.34915e-16
-1.97161e-16
-2.88079e-17
3.4298e-17
4.4571e-17
3.4807e-17
2.15427e-17
1.10943e-17
4.61513e-18
1.28059e-18
-1.0371e-19
-4.86617e-19
-4.55554e-19
-3.10953e-19
-1.76229e-19
-8.46947e-20
-3.37233e-20
-4.2391e-21
1.00013
1
0.997981
0.997159
1.00648
1.02865
1.04519
1.0185
0.915024
0.731153
0.5
0.274394
0.0999444
-0.00347339
-0.0432147
-0.0423674
-0.025367
-0.00872811
0.000913719
0.00384278
0.00306586
0.00135109
0.000126998
-0.000336704
-0.000316604
-0.000147094
-1.60181e-05
3.41025e-05
3.16251e-05
1.36644e-05
5.30393e-07
-3.87081e-06
-3.08009e-06
-1.09845e-06
1.40973e-07
4.45199e-07
2.83612e-07
6.9595e-08
-3.70609e-08
-4.83133e-08
-2.3312e-08
-1.73281e-09
5.9957e-09
4.74593e-09
1.3563e-09
-7.21628e-10
-1.12684e-09
-6.92187e-10
-1.58783e-10
1.69397e-10
2.83788e-10
2.67708e-10
1.93048e-10
1.0259e-10
2.12808e-11
-3.58147e-11
-6.28101e-11
-6.31512e-11
-4.67201e-11
-2.48632e-11
-6.1438e-12
5.43894e-12
9.8678e-12
9.33585e-12
6.49153e-12
3.3571e-12
9.95127e-13
-3.30617e-13
-8.12089e-13
-7.87956e-13
-5.56367e-13
-3.05633e-13
-1.19606e-13
-1.31625e-14
3.13627e-14
3.92174e-14
3.0955e-14
1.91057e-14
9.38596e-15
3.25716e-15
1.84573e-16
-9.24913e-16
-1.03421e-15
-7.71516e-16
-4.60863e-16
-2.25392e-16
-8.36856e-17
-1.40076e-17
1.20934e-17
1.67003e-17
1.32158e-17
8.25626e-18
4.31584e-18
1.85616e-18
5.74317e-19
2.58769e-20
-1.4206e-19
-1.4834e-19
-1.06146e-19
-5.59641e-20
1.00003
1.00026
0.999477
0.997178
0.998022
1.01001
1.03255
1.04539
1.01331
0.90717
0.725606
0.5
0.279329
0.106439
0.00115474
-0.041932
-0.0437761
-0.0277924
-0.0107283
-6.2262e-05
0.00374582
0.00339021
0.00170247
0.000325544
-0.000292008
-0.000351728
-0.000194215
-4.36511e-05
2.76072e-05
3.59343e-05
1.94425e-05
3.72373e-06
-3.28055e-06
-3.68832e-06
-1.77215e-06
-1.80259e-07
4.20077e-07
3.69803e-07
1.43152e-07
-9.6936e-09
-5.16299e-08
-3.44969e-08
-8.71892e-09
4.7227e-09
6.29939e-09
3.03238e-09
-1.48146e-11
-1.29867e-09
-1.26584e-09
-7.44192e-10
-2.3949e-10
9.09423e-11
2.55891e-10
2.99242e-10
2.59874e-10
1.73598e-10
7.59298e-11
-3.97155e-12
-5.06729e-11
-6.39573e-11
-5.39492e-11
-3.38214e-11
-1.41076e-11
-3.50006e-13
6.41506e-12
7.81364e-12
6.27288e-12
3.82955e-12
1.69081e-12
3.04779e-13
-3.58661e-13
-5.28345e-13
-4.46997e-13
-2.88549e-13
-1.45638e-13
-5.01141e-14
-2.59611e-16
1.80887e-14
1.95376e-14
1.44532e-14
8.51987e-15
4.01662e-15
1.32217e-15
3.28983e-17
-4.05199e-16
-4.3139e-16
-3.14333e-16
-1.85086e-16
-8.99668e-17
-3.37492e-17
-6.37555e-18
3.91865e-18
5.89803e-18
4.75237e-18
3.00295e-18
1.59397e-18
7.06569e-19
2.37564e-19
3.37027e-20
-5.15061e-20
0.999982
1.00016
1.00019
0.998814
0.996675
0.999337
1.01347
1.03578
1.04504
1.0083
0.900056
0.720671
0.5
0.283765
0.112406
0.00559006
-0.0404869
-0.0448875
-0.0300111
-0.0126941
-0.0011218
0.00354557
0.00365566
0.00204819
0.000547226
-0.000222631
-0.000374148
-0.000240368
-7.5744e-05
1.67653e-05
3.82309e-05
2.51857e-05
7.65635e-06
-2.05943e-06
-4.04895e-06
-2.47363e-06
-6.13007e-07
3.15662e-07
4.32373e-07
2.25657e-07
3.25661e-08
-4.6794e-08
-4.47361e-08
-1.78362e-08
1.61836e-09
7.46179e-09
5.39455e-09
1.69173e-09
-6.96471e-10
-1.48387e-09
-1.35112e-09
-9.09463e-10
-4.55607e-10
-8.63711e-11
1.6827e-10
2.96607e-10
3.07962e-10
2.36935e-10
1.31716e-10
3.50884e-11
-2.85988e-11
-5.51201e-11
-5.37063e-11
-3.80883e-11
-1.98539e-11
-5.66108e-12
2.47343e-12
5.43924e-12
5.21455e-12
3.65254e-12
1.96908e-12
7.22371e-13
1.6437e-14
-2.66998e-13
-3.01193e-13
-2.28658e-13
-1.364e-13
-6.34915e-14
-1.88878e-14
2.46668e-15
9.28304e-15
8.98167e-15
6.28971e-15
3.56216e-15
1.61974e-15
5.08762e-16
-1.51925e-18
-1.65621e-16
-1.69597e-16
-1.21229e-16
-7.0584e-17
-3.41944e-17
-1.2992e-17
-2.73344e-18
1.15447e-18
1.96903e-18
1.62467e-18
1.04033e-18
5.65868e-19
2.06113e-19
0.999983
1.00003
1.00026
0.999957
0.998132
0.996485
1.00096
1.01677
1.03844
1.04428
1.00347
0.893561
0.716235
0.5
0.287787
0.11792
0.00983944
-0.0389223
-0.0457452
-0.0320359
-0.0146108
-0.00224409
0.00325288
0.00386074
0.00238115
0.000786327
-0.00013018
-0.000382519
-0.00028358
-0.000111168
1.68152e-06
3.81078e-05
3.04962e-05
1.21583e-05
-1.87643e-07
-4.0765e-06
-3.1394e-06
-1.1381e-06
1.23395e-07
4.57313e-07
3.09187e-07
8.85581e-08
-3.20491e-08
-5.26377e-08
-2.91294e-08
-4.31334e-09
7.16715e-09
7.87739e-09
4.45308e-09
1.18189e-09
-6.63766e-10
-1.34622e-09
-1.39541e-09
-1.14383e-09
-7.51903e-10
-3.27715e-10
2.95708e-11
2.50818e-10
3.21346e-10
2.76744e-10
1.76008e-10
7.26059e-11
-1.89355e-12
-3.92395e-11
-4.6683e-11
-3.71886e-11
-2.2359e-11
-9.37178e-12
-1.00201e-12
2.8917e-12
3.72055e-12
3.01357e-12
1.87593e-12
8.93198e-13
2.56781e-13
-5.99767e-14
-1.62244e-13
-1.53907e-13
-1.06916e-13
-5.94346e-14
-2.5575e-14
-6.40043e-15
2.04968e-15
4.33235e-15
3.84645e-15
2.57089e-15
1.40635e-15
6.19793e-16
1.87027e-16
-4.80786e-18
-6.35762e-17
-6.31703e-17
-4.44728e-17
-2.56776e-17
-1.24281e-17
-4.79179e-18
-1.10958e-18
3.02117e-19
6.18909e-19
5.29994e-19
0.999994
0.999978
1.00012
1.0003
0.999599
0.997507
0.996583
1.00278
1.01986
1.04061
1.04321
0.998845
0.887594
0.712213
0.5
0.291459
0.123039
0.0139117
-0.0372711
-0.0463857
-0.0338802
-0.0164687
-0.00341188
0.00287833
0.00400571
0.00269582
0.00103755
-1.67195e-05
-0.000376094
-0.000322165
-0.000148743
-1.7363e-05
3.52843e-05
3.50018e-05
1.70249e-05
2.31414e-06
-3.70412e-06
-3.70434e-06
-1.72727e-06
-1.58347e-07
4.32899e-07
3.85386e-07
1.56431e-07
-5.54397e-09
-5.61921e-08
-4.21951e-08
-1.42257e-08
3.59058e-09
8.85052e-09
7.30857e-09
4.12684e-09
1.56753e-09
-4.22177e-11
-9.5647e-10
-1.3691e-09
-1.36651e-09
-1.04998e-09
-5.81835e-10
-1.36713e-10
1.66728e-10
2.95331e-10
2.8467e-10
1.99902e-10
1.00669e-10
2.32543e-11
-2.05452e-11
-3.52886e-11
-3.21002e-11
-2.16582e-11
-1.10283e-11
-3.40716e-12
7.22016e-13
2.20004e-12
2.1682e-12
1.54142e-12
8.62503e-13
3.6015e-13
7.0383e-14
-5.59985e-14
-8.56596e-14
-7.16908e-14
-4.62144e-14
-2.4102e-14
-9.59852e-15
-1.93188e-15
1.18317e-15
1.86645e-15
1.54676e-15
9.93529e-16
5.27465e-16
2.26369e-16
6.61214e-17
-2.78557e-18
-2.30449e-17
-2.23919e-17
-1.55827e-17
-8.94551e-18
-4.33204e-18
-1.72527e-18
-1.97986e-19
1
0.999978
1.00001
1.00021
1.00025
0.999162
0.996984
0.996931
1.00472
1.02272
1.04237
1.04193
0.99441
0.88208
0.708541
0.5
0.294834
0.127814
0.0178165
-0.035558
-0.0468395
-0.0355575
-0.0182615
-0.00461091
0.00243196
0.00409206
0.00298801
0.00129613
0.000115423
-0.000354624
-0.00035473
-0.000187304
-3.9954e-05
2.95995e-05
3.83717e-05
2.20315e-05
5.3899e-06
-2.88662e-06
-4.10663e-06
-2.34622e-06
-5.25097e-07
3.49988e-07
4.45954e-07
2.34118e-07
3.53623e-08
-5.16963e-08
-5.48468e-08
-2.81612e-08
-4.97414e-09
5.93324e-09
8.05595e-09
6.61891e-09
4.52991e-09
2.61714e-09
9.4959e-10
-3.92624e-10
-1.23745e-09
-1.49888e-09
-1.27537e-09
-7.95974e-10
-2.98895e-10
6.10303e-11
2.36974e-10
2.61667e-10
2.00656e-10
1.14723e-10
4.19743e-11
-3.21608e-12
-2.25338e-11
-2.46295e-11
-1.85834e-11
-1.08128e-11
-4.57539e-12
-7.754e-13
9.42883e-13
1.34125e-12
1.11205e-12
7.09816e-13
3.59188e-13
1.29276e-13
9.99799e-15
-3.49671e-14
-4.05832e-14
-3.08378e-14
-1.86423e-14
-9.17098e-15
-3.38061e-15
-5.05048e-16
5.72324e-16
7.50524e-16
5.87947e-16
3.65056e-16
1.88913e-16
7.9309e-17
2.26074e-17
-1.16107e-18
-7.92347e-18
-7.58147e-18
-5.2574e-18
-2.65797e-18
1
0.999992
0.999971
1.00006
1.00029
1.00011
0.998686
0.996583
0.997489
1.00671
1.02537
1.04378
1.04049
0.990161
0.876961
0.705166
0.5
0.297951
0.132283
0.0215636
-0.0338022
-0.0471324
-0.0370806
-0.0199854
-0.00582946
0.00192307
0.00412207
0.00325471
0.00155785
0.0002638
-0.000318255
-0.000380175
-0.000225738
-6.55834e-05
2.10024e-05
4.03262e-05
2.69476e-05
8.95483e-06
-1.60107e-06
-4.29159e-06
-2.95812e-06
-9.68361e-07
2.00754e-07
4.81522e-07
3.18314e-07
9.35964e-08
-3.3364e-08
-6.18103e-08
-4.3173e-08
-1.81766e-08
-2.46743e-09
4.12715e-09
6.01198e-09
6.13147e-09
5.39762e-09
3.94709e-09
2.05764e-09
2.53509e-10
-9.91484e-10
-1.4949e-09
-1.37994e-09
-9.30962e-10
-4.27269e-10
-4.45307e-11
1.60996e-10
2.1614e-10
1.81479e-10
1.14375e-10
5.1947e-11
9.86804e-12
-1.09963e-11
-1.66693e-11
-1.43005e-11
-9.30181e-12
-4.68747e-12
-1.56187e-12
7.81759e-14
6.73751e-13
7.02817e-13
5.13059e-13
2.98245e-13
1.36697e-13
4.09764e-14
-3.85069e-15
-1.80271e-14
-1.76033e-14
-1.23762e-14
-7.07409e-15
-3.29766e-15
-1.12436e-15
-1.05199e-16
2.46522e-16
2.84101e-16
2.12449e-16
1.28149e-16
6.48959e-17
2.67685e-17
7.49823e-18
-3.16488e-19
-3.09225e-18
1
1
0.99998
0.999981
1.00013
1.00033
0.999903
0.998204
0.996314
0.998219
1.00873
1.02779
1.04489
1.03892
0.986088
0.872186
0.702049
0.5
0.300845
0.136483
0.0251626
-0.0320184
-0.0472861
-0.0384617
-0.0216386
-0.00705794
0.0013602
0.00409858
0.0034938
0.00181902
0.00042595
-0.000267441
-0.000397668
-0.000263019
-9.36834e-05
9.53675e-06
4.06419e-05
3.15478e-05
1.29033e-05
1.55134e-07
-4.21311e-06
-3.52573e-06
-1.47745e-06
-2.32459e-08
4.79069e-07
4.01349e-07
1.69414e-07
4.72515e-09
-5.51769e-08
-5.2321e-08
-3.16113e-08
-1.48143e-08
-5.3212e-09
-1.39911e-11
3.55746e-09
5.79312e-09
6.31417e-09
5.16651e-09
3.04766e-09
8.81837e-10
-6.58399e-10
-1.35273e-09
-1.35182e-09
-9.70302e-10
-5.02741e-10
-1.3081e-10
8.38053e-11
1.59951e-10
1.49366e-10
1.02585e-10
5.34443e-11
1.75869e-11
-2.23326e-12
-9.65517e-12
-9.88504e-12
-7.17735e-12
-4.10097e-12
-1.77222e-12
-4.00566e-13
2.16952e-13
3.78448e-13
3.27935e-13
2.16324e-13
1.15564e-13
4.78402e-14
1.11509e-14
-4.33339e-15
-8.19912e-15
-7.08863e-15
-4.67328e-15
-2.54242e-15
-1.1275e-15
-3.55113e-16
-1.16275e-17
9.73334e-17
1.01928e-16
7.33279e-17
4.31353e-17
2.16926e-17
6.54393e-18
1
1
0.999995
0.99997
1.00001
1.0002
1.00032
0.999638
0.997741
0.996174
0.999086
1.01073
1.03001
1.04575
1.03727
0.982184
0.867717
0.699155
0.5
0.303542
0.14044
0.0286225
-0.0302183
-0.0473191
-0.0397121
-0.0232206
-0.00828853
0.000751047
0.00402473
0.00370393
0.00207651
0.00059947
-0.000202868
-0.000406619
-0.000298224
-0.000123655
-4.67367e-06
3.91531e-05
3.56216e-05
1.71176e-05
2.36903e-06
-3.83169e-06
-4.01011e-06
-2.03839e-06
-3.30961e-07
4.20138e-07
4.67366e-07
2.5534e-07
6.36232e-08
-2.81582e-08
-4.65091e-08
-3.67086e-08
-2.48606e-08
-1.70837e-08
-1.1097e-08
-4.8581e-09
1.16999e-09
5.40773e-09
6.9123e-09
5.98572e-09
3.74936e-09
1.40109e-09
-2.91853e-10
-1.10759e-09
-1.21175e-09
-9.20664e-10
-5.20537e-10
-1.86428e-10
1.84378e-11
1.0436e-10
1.12285e-10
8.39969e-11
4.85208e-11
2.03366e-11
3.29466e-12
-4.34672e-12
-6.07384e-12
-5.01016e-12
-3.18996e-12
-1.61184e-12
-5.79306e-13
-4.40613e-14
1.57742e-13
1.83005e-13
1.39244e-13
8.43671e-14
4.1648e-14
1.54511e-14
2.38461e-15
-2.54948e-15
-3.39545e-15
-2.67763e-15
-1.67188e-15
-8.70513e-16
-3.68568e-16
-1.07055e-16
3.6355e-18
3.58358e-17
3.48802e-17
2.29013e-17
1
1
1
0.999986
0.999968
1.00005
1.00027
1.00027
0.999331
0.997313
0.996157
1.00006
1.01269
1.03204
1.04639
1.03556
0.978436
0.863517
0.696458
0.5
0.306067
0.144179
0.0319521
-0.0284107
-0.0472471
-0.0408424
-0.0247318
-0.00951485
0.000102559
0.00390383
0.00388439
0.00232765
0.000782064
-0.000125388
-0.000406656
-0.00033054
-0.000154893
-2.14423e-05
3.57477e-05
3.89776e-05
2.1474e-05
5.01743e-06
-3.10969e-06
-4.36527e-06
-2.62778e-06
-7.26321e-07
2.83839e-07
4.91699e-07
3.32106e-07
1.33283e-07
1.82543e-08
-2.00243e-08
-2.42094e-08
-2.28451e-08
-2.32071e-08
-2.23261e-08
-1.73797e-08
-9.21555e-09
-9.08247e-10
4.8185e-09
6.9889e-09
6.26804e-09
4.08022e-09
1.748e-09
4.82763e-11
-8.13472e-10
-1.00021e-09
-8.05324e-10
-4.88613e-10
-2.09126e-10
-2.80171e-11
5.7324e-11
7.6911e-11
6.32701e-11
3.99249e-11
1.94138e-11
5.94866e-12
-8.86257e-13
-3.20905e-12
-3.16015e-12
-2.24452e-12
-1.27602e-12
-5.68223e-13
-1.57834e-13
2.93484e-14
8.4918e-14
7.93022e-14
5.46148e-14
3.07265e-14
1.40566e-14
4.60671e-15
2.51569e-16
-1.19901e-15
-1.30426e-15
-9.56451e-16
-5.70014e-16
-2.85416e-16
-1.15647e-16
-3.18378e-17
9.9489e-18
1
1
1
0.999999
0.999976
0.999976
1.0001
1.00032
1.00018
0.998997
0.996934
0.996254
1.00112
1.01461
1.03388
1.04684
1.0338
0.974837
0.85956
0.693933
0.5
0.308436
0.147722
0.0351593
-0.0266028
-0.0470838
-0.0418621
-0.0261733
-0.0107318
-0.000579061
0.00373921
0.00403491
0.00257022
0.000971578
-3.59663e-05
-0.000397592
-0.000359271
-0.000186804
-4.05376e-05
3.03595e-05
4.14426e-05
2.58445e-05
8.06811e-06
-2.00865e-06
-4.53193e-06
-3.20278e-06
-1.19633e-06
5.76966e-08
4.47954e-07
3.70628e-07
1.89713e-07
6.91215e-08
2.20211e-08
9.01149e-09
-4.24889e-10
-1.35542e-08
-2.46499e-08
-2.77715e-08
-2.2394e-08
-1.23898e-08
-2.55789e-09
3.98955e-09
6.52719e-09
6.02566e-09
4.04462e-09
1.8987e-09
3.15001e-10
-5.23696e-10
-7.62302e-10
-6.54508e-10
-4.22653e-10
-2.03925e-10
-5.44064e-11
2.2634e-11
4.74636e-11
4.39619e-11
3.01906e-11
1.63692e-11
6.51023e-12
9.92789e-13
-1.31483e-12
-1.77694e-12
-1.43661e-12
-9.0746e-13
-4.64457e-13
-1.79509e-13
-3.13966e-14
2.72875e-14
3.89001e-14
3.15016e-14
2.00082e-14
1.05314e-14
4.4677e-15
1.26232e-15
-1.03911e-16
-4.95413e-16
-4.70464e-16
-3.25047e-16
-1.87704e-16
-7.38083e-17
1
1
1
1
0.999993
0.999969
0.999995
1.00016
1.00035
1.00004
0.998649
0.99661
0.996454
1.00224
1.01647
1.03556
1.04713
1.03202
0.971377
0.855821
0.691564
0.5
0.310668
0.151087
0.0382517
-0.0248
-0.0468406
-0.0427801
-0.0275469
-0.0119352
-0.00128828
0.0035342
0.00415565
0.00280238
0.00116602
6.43614e-05
-0.000379392
-0.000383832
-0.00021882
-6.16989e-05
2.29551e-05
4.28527e-05
3.00872e-05
1.14705e-05
-4.96268e-07
-4.43866e-06
-3.69444e-06
-1.69754e-06
-2.45409e-07
3.24167e-07
3.43878e-07
2.00741e-07
9.52913e-08
5.88986e-08
5.28394e-08
4.20662e-08
1.83642e-08
-8.52098e-09
-2.67502e-08
-3.14507e-08
-2.52087e-08
-1.41165e-08
-3.7225e-09
2.99828e-09
5.65116e-09
5.37684e-09
3.71266e-09
1.86791e-09
4.84768e-10
-2.77316e-10
-5.35748e-10
-4.96585e-10
-3.40299e-10
-1.79743e-10
-6.38173e-11
4.90779e-13
2.56232e-11
2.81153e-11
2.11315e-11
1.25469e-11
5.83005e-12
1.73501e-12
-2.26592e-13
-8.56738e-13
-8.33117e-13
-5.87398e-13
-3.358e-13
-1.54898e-13
-5.02056e-14
-1.28387e-15
1.50327e-14
1.59596e-14
1.16427e-14
6.90604e-15
3.41889e-15
1.34314e-15
3.13879e-16
-9.149e-17
-1.86167e-16
-1.59376e-16
1
1
1
1
1
0.999985
0.999966
1.00002
1.00022
1.00036
0.999873
0.998298
0.996344
0.996747
1.00341
1.01826
1.03708
1.04729
1.03022
0.968048
0.852278
0.689332
0.5
0.312776
0.154289
0.0412361
-0.0230068
-0.0465277
-0.0436044
-0.0288545
-0.0131217
-0.0020202
0.00329202
0.00424703
0.00302265
0.00136355
0.000174526
-0.00035215
-0.000403737
-0.000250402
-8.46452e-05
1.3526e-05
4.30419e-05
3.40306e-05
1.51346e-05
1.43103e-06
-4.01951e-06
-4.01522e-06
-2.15175e-06
-5.72887e-07
1.4273e-07
2.47181e-07
1.42351e-07
6.32926e-08
5.73429e-08
8.14826e-08
8.9867e-08
6.86236e-08
3.01154e-08
-6.19663e-09
-2.77325e-08
-3.24829e-08
-2.56559e-08
-1.44558e-08
-4.39187e-09
1.97982e-09
4.5514e-09
4.48849e-09
3.18864e-09
1.69795e-09
5.5796e-10
-9.3978e-11
-3.44804e-10
-3.52528e-10
-2.56686e-10
-1.46079e-10
-6.13509e-11
-1.11907e-11
1.11325e-11
1.63984e-11
1.3725e-11
8.87011e-12
4.60981e-12
1.78763e-12
2.88969e-13
-3.13009e-13
-4.30109e-13
-3.47004e-13
-2.19953e-13
-1.1487e-13
-4.7476e-14
-1.19773e-14
2.86301e-15
6.74997e-15
6.01943e-15
4.04639e-15
2.26164e-15
1.05615e-15
3.90463e-16
1.01988e-17
1
1
1
1
1
0.999999
0.999977
0.999969
1.00006
1.00027
1.00034
0.999674
0.997952
0.996139
0.997122
1.00461
1.01999
1.03846
1.04732
1.02841
0.964841
0.848913
0.687224
0.5
0.314771
0.157342
0.0441189
-0.0212264
-0.0461536
-0.0443425
-0.0300982
-0.0142888
-0.00277045
0.00301579
0.00430971
0.00322984
0.00156252
0.000293453
-0.000316052
-0.000418581
-0.000281029
-0.000109067
2.09464e-06
4.18433e-05
3.74627e-05
1.89055e-05
3.71285e-06
-3.25125e-06
-4.08937e-06
-2.46293e-06
-8.33963e-07
-2.78377e-08
1.18224e-07
2.09661e-08
-4.52476e-08
-1.50895e-08
5.9833e-08
1.14081e-07
1.19129e-07
8.42831e-08
3.53953e-08
-5.05853e-09
-2.68361e-08
-3.09267e-08
-2.41007e-08
-1.36722e-08
-4.60205e-09
1.06627e-09
3.41657e-09
3.52477e-09
2.58048e-09
1.44329e-09
5.52306e-10
2.4185e-11
-1.99694e-10
-2.34107e-10
-1.82125e-10
-1.10745e-10
-5.22367e-11
-1.54261e-11
2.63267e-12
8.52549e-12
8.25536e-12
5.82603e-12
3.31966e-12
1.50491e-12
4.52622e-13
-3.424e-14
-1.88255e-13
-1.85716e-13
-1.31727e-13
-7.6369e-14
-3.6581e-14
-1.33507e-14
-2.15697e-15
1.97105e-15
2.68063e-15
2.11987e-15
1.34292e-15
6.01478e-16
1
1
1
1
1
1
0.999994
0.99997
0.999978
1.0001
1.00032
1.00029
0.999453
0.997619
0.995994
0.997568
1.00583
1.02164
1.03971
1.04725
1.0266
0.961748
0.845711
0.685229
0.5
0.316664
0.160259
0.0469061
-0.0194615
-0.0457261
-0.045001
-0.0312804
-0.0154344
-0.0035352
0.00270846
0.00434452
0.00342304
0.00176143
0.000420079
-0.000271351
-0.000428012
-0.000310174
-0.000134595
-1.12517e-05
3.91186e-05
4.01449e-05
2.25554e-05
6.19381e-06
-2.19978e-06
-3.90335e-06
-2.5605e-06
-9.27748e-07
-8.28852e-08
4.32509e-08
-1.09406e-07
-2.11931e-07
-1.69574e-07
-4.11378e-08
8.05202e-08
1.40382e-07
1.34357e-07
8.89897e-08
3.58442e-08
-4.14711e-09
-2.41627e-08
-2.74279e-08
-2.11776e-08
-1.21241e-08
-4.43166e-09
3.46417e-10
2.3893e-09
2.61381e-09
1.97766e-09
1.15635e-09
4.93673e-10
8.68096e-11
-9.96848e-11
-1.44926e-10
-1.2181e-10
-7.88899e-11
-4.0686e-11
-1.51547e-11
-1.59642e-12
3.72414e-12
4.56018e-12
3.5641e-12
2.21036e-12
1.12053e-12
4.33711e-13
8.06427e-14
-5.9109e-14
-8.79371e-14
-7.20845e-14
-4.6312e-14
-2.4809e-14
-1.08958e-14
-3.41369e-15
-1.13149e-16
9.19457e-16
1.00161e-15
1
1
1
1
1
1
1
0.999988
0.999965
0.999994
1.00015
1.00035
1.00022
0.999214
0.997304
0.995908
0.998077
1.00706
1.02322
1.04084
1.04708
1.0248
0.958764
0.842658
0.683336
0.5
0.318465
0.16305
0.0496032
-0.0177142
-0.0452515
-0.0455862
-0.0324034
-0.016557
-0.00431104
0.00237282
0.0043524
0.00360151
0.0019589
0.000553349
-0.000218367
-0.000431725
-0.000337278
-0.000160763