/*--------------------------------*- C++ -*----------------------------------*\
  =========                 |
  \\      /  F ield         | OpenFOAM: The Open Source CFD Toolbox
   \\    /   O peration     | Website:  https://openfoam.org
    \\  /    A nd           | Version:  7
     \\/     M anipulation  |
\*---------------------------------------------------------------------------*/
FoamFile
{
    version     2.0;
    format      ascii;
    class       volScalarField;
    location    "0.8";
    object      T;
}
// * * * * * * * * * * * * * * * * * * * * * * * * * * * * * * * * * * * * * //

dimensions      [0 0 0 1 0 0 0];

internalField   nonuniform List<scalar> 
5936
(
0.509388
0.913124
0.999003
0.982342
1.00586
1.01594
1.00206
1.00701
1.00021
1.00101
0.999887
0.999757
0.99995
0.999843
0.999998
0.999979
1
1
0.999999
0.999998
0.999999
0.999996
0.999999
0.999998
1
1
1
1
1
1
1
1
1
1
1
1
1
1
1
1
1
1
1
1
1
1
1
1
1
1
1
1
1
1
1
1
1
1
1
1
1
1
1
1
1
1
1
1
1
1
1
1
1
1
1
1
1
1
1
1
1
1
1
1
1
1
1
1
1
1
1
1
1
1
1
1
1
1
1
0.116255
-0.00308433
-0.000220626
4.08817e-05
-3.12618e-07
4.17017e-07
-4.23739e-09
-1.40026e-08
2.90361e-09
-1.08891e-11
-6.94596e-11
1.12967e-11
-5.61695e-13
-1.51747e-13
5.8859e-14
-8.22617e-15
-5.1367e-16
5.14082e-16
-2.96915e-17
-1.65638e-17
-1.45623e-19
4.26121e-19
3.98078e-20
-2.26969e-21
1.50429e-37
-1.93759e-21
-7.46024e-21
-2.10779e-18
-2.08264e-17
-1.21097e-16
-1.71304e-15
-7.21199e-14
-1.78546e-13
8.91456e-12
9.50432e-11
4.34424e-10
-5.39001e-10
-1.02334e-09
5.58499e-08
4.37891e-08
-2.13198e-06
7.92687e-06
-3.54245e-05
0.000100038
-0.000151555
0.000378462
-0.00117353
-0.000193235
0.00739488
0.0192837
1
1
1
1
1
1
1
1
1
1
1
1
1
1
1
1
1
1
1
1
1
1
1
1
1
1
1
1
1
1
1
1
1
1
0.999998
1
0.999988
0.999992
0.999999
0.999995
1.00004
1.00002
1.00004
1.00004
0.999975
1.00001
0.999803
0.999871
0.999675
0.999712
0.999972
0.999848
1.00102
1.00065
1.00235
1.00188
1.00266
1.00252
0.999864
1.0008
0.991399
0.994219
0.973809
0.979627
0.94303
0.952852
0.898221
0.912508
0.838165
0.857054
0.766491
0.788562
0.685143
0.710503
0.59685
0.623915
0.509163
0.53565
0.422513
0.448777
0.341891
0.36586
0.272757
0.293241
0.210602
0.228875
0.159847
0.175058
0.115752
0.129304
0.0835888
0.0944356
0.0590779
0.0670998
0.0358131
0.0227154
0.0412607
-1.3515e-21
0.0130571
0.0134562
-0.00159039
6.86186e-05
7.16026e-06
1.01484e-07
1.83366e-07
-3.61295e-08
7.26615e-10
1.14101e-09
-1.85712e-10
2.08208e-12
3.6218e-12
-7.45013e-13
8.04962e-14
7.53674e-15
-4.82117e-15
7.62938e-16
1.20772e-16
-3.79015e-17
-4.35046e-18
6.18082e-19
1.64659e-19
3.47232e-21
-0.000922382
-2.08472e-21
0.0161039
8.55601e-21
3.05972e-19
4.86028e-18
1.15691e-16
-3.32234e-16
1.73323e-14
2.28081e-13
-1.731e-12
-2.82299e-11
-2.5284e-10
-4.44952e-10
3.13194e-09
-1.51883e-08
-1.35539e-07
8.20575e-07
3.46251e-07
-5.48354e-06
2.68358e-05
-4.10292e-05
-2.42183e-05
-0.000181306
-0.0014857
0.00460978
0.000131136
0.0664675
1.98391e-06
0.457247
0.0001441
3.03963e-05
6.54724e-07
5.36433e-07
-9.96366e-08
6.91149e-10
3.44609e-09
-4.95788e-10
-5.19553e-12
1.10785e-11
-2.04638e-12
1.90542e-13
2.57112e-14
-1.35969e-14
2.11702e-15
3.8864e-16
-1.25194e-16
-1.53571e-17
1.94595e-18
5.80566e-19
1.76234e-20
-4.87718e-21
1.50121e-19
2.94604e-18
8.31441e-17
-2.92813e-16
1.54502e-14
2.13932e-13
-1.06497e-12
-1.62456e-11
-1.5548e-10
-3.39522e-10
1.75005e-09
-9.02048e-09
-9.77055e-08
6.32722e-07
6.49941e-07
-6.71658e-06
2.76794e-05
-3.65036e-05
-2.3506e-06
-0.000290375
-0.0014438
0.00534521
6.5936e-21
1.14995e-06
4.3657e-09
-4.18439e-08
7.51529e-09
1.18422e-10
-2.15222e-10
2.83939e-11
-9.8072e-13
-4.79568e-13
1.60776e-13
-2.13471e-14
-1.59473e-15
1.60551e-15
-8.61652e-17
-5.76638e-17
-8.28681e-19
1.41449e-18
1.5032e-19
-5.87195e-21
-1.54026e-18
-1.01748e-17
-8.94705e-17
-1.58004e-15
-6.31555e-14
-2.86221e-13
5.89737e-12
5.69369e-11
2.65961e-10
-7.52831e-11
-3.51174e-10
3.34126e-08
4.80525e-08
-1.78749e-06
6.68418e-06
-2.94504e-05
8.90886e-05
-0.000138614
0.000306593
-0.0012903
0.000375735
0.00905273
-0.0055644
-0.00532448
5.90284e-21
0.596807
-0.00118086
0.957427
1.0026
0.985737
1.00456
1.0082
1.00136
1.00401
0.999967
1.00053
0.999869
0.999794
0.999989
0.999958
1.00002
1.00005
1.00001
1.00003
1
1.00001
0.999998
0.999998
0.999999
0.999998
1
1
1
1
1
1
1
1
1
1
1
1
1
1
1
1
1
1
1
1
1
1
1
1
1
1
1
1
1
1
1
1
1
1
1
1
1
1
1
1
1
1
1
1
1
1
1
1
1
1
1
1
1
1
1
1
1
1
1
1
1
1
1
1
1
1
1
1
1
1
1
1.69598e-20
0.00151943
6.23973e-05
0.260823
-5.70122e-06
5.20646e-08
2.91934e-07
-5.98098e-08
1.72147e-09
1.47092e-09
-2.64765e-10
1.49903e-11
3.7156e-12
-1.23045e-12
1.78708e-13
7.45493e-15
-9.18689e-15
1.30692e-15
3.10317e-16
-4.36306e-17
-1.1658e-17
-1.77042e-19
1.86397e-19
1.61452e-20
-1.87856e-18
-0.00316853
-0.00458952
-0.0032785
-4.54848e-22
0.0237528
0.0359812
-3.68932e-06
-8.98206e-06
-1.32075e-06
0.532986
-5.55768e-18
-2.01572e-16
-6.41231e-16
-6.95605e-14
-6.08699e-13
6.64496e-12
7.32855e-11
4.21009e-10
3.2532e-10
-2.43408e-09
3.94377e-08
1.93339e-07
-2.69362e-06
8.22322e-06
-3.46623e-05
0.000107345
-0.000168415
0.000386099
-0.00201864
0.00226566
0.0126163
0.0229077
0.0517236
0.189634
0.0225263
-9.55505e-05
-0.000690296
4.39733e-05
1.58816e-05
-6.93586e-06
1
1
1
1
1
1
1
1
1
1
1
1
1
1
1
1
1
1
1
1
1
1
1
1
1
1
1
1
1
1
1
1
0.999998
1
0.99999
0.999991
1
0.999993
1.00003
1.00002
1.00004
1.00005
0.999978
1.00002
0.999821
0.999886
0.999703
0.999689
1.00002
0.999789
1.00102
1.00054
1.0022
1.0018
1.00232
1.00262
0.999536
1.00155
0.991113
0.996099
0.973457
0.982424
0.943125
0.957872
0.898661
0.918806
0.839463
0.865436
0.767938
0.797984
0.688113
0.721105
0.601121
0.636702
0.512727
0.547457
0.426984
0.459788
0.346857
0.377625
0.275661
0.301552
0.213583
0.235591
0.163157
0.180822
0.120434
0.134921
0.0910922
0.103519
0.780431
1.04264e-20
0.830481
2.48911e-20
3.08769e-13
2.78737e-13
4.15287e-05
1.13289e-20
1.0737e-20
-5.66372e-13
7.6824e-07
-1.96673e-08
-2.1219e-08
4.30607e-09
-1.12813e-10
-7.83966e-11
1.77927e-11
-1.70051e-12
-1.38949e-13
1.00873e-13
-1.56141e-14
-1.20099e-15
9.87593e-16
9.9488e-18
-2.83915e-17
-3.10937e-18
3.04759e-19
6.21812e-20
-1.93509e-18
1.93772e-14
1.52237e-14
1.05116e-16
1.0694e-16
4.05926e-18
-1.14502e-16
3.14451e-18
-4.95205e-16
-8.18194e-14
1.42716e-06
-8.21648e-13
-1.98413e-11
-2.18789e-10
-6.2633e-10
2.29589e-09
-8.8681e-09
-1.52206e-07
6.62469e-07
2.63851e-06
-1.62656e-05
6.55847e-05
-0.000111413
0.000100493
-0.000812314
-0.00140037
0.0101233
-1.15586e-07
2.86092e-13
-2.80815e-12
1.12927e-19
1.3192e-11
0.063984
-2.48396e-12
0.00211203
-0.00206586
0.000376762
-0.00017294
0.000117165
-3.78108e-05
8.76362e-06
-2.56637e-06
1.16728e-07
3.42608e-08
1.8056e-11
2.43969e-10
5.77389e-20
4.83642e-19
-1.53854e-18
-3.25394e-17
-8.18064e-17
9.836e-16
1.92114e-15
-2.29631e-14
4.80676e-14
0.0107609
-0.00173967
-0.000719455
5.85305e-05
-7.95777e-05
5.25631e-05
-1.30807e-05
1.82501e-06
7.88522e-07
-1.39193e-07
-1.0662e-08
1.52819e-09
-4.51745e-10
-1.82187e-10
-1.99202e-11
-5.55045e-16
1.94327e-19
4.88693e-19
-1.04342e-17
-7.16755e-17
1.34285e-16
2.3294e-15
-5.85513e-15
-2.78631e-14
2.48512e-13
-6.88987e-13
-1.86967e-12
3.71004e-11
-2.36544e-10
3.8938e-10
8.41357e-09
-6.17565e-08
7.19374e-08
-1.02109e-12
-4.9964e-10
4.34443e-09
-5.1855e-09
8.47416e-07
-6.83915e-18
3.13405e-10
-1.75755e-15
6.66812e-11
6.73843e-12
8.0514e-05
3.50822e-13
0.994132
1.00615
1.00363
1.00319
1.00652
1.00017
1.00137
0.999567
0.999319
0.99981
0.999466
0.999986
0.999885
1.00002
1.00003
1.00001
1.00003
1
1
0.999999
0.999998
0.999999
0.999998
1
1
1
1
1
1
1
1
1
1
1
1
1
1
1
1
1
1
1
1
1
1
1
1
1
1
1
1
1
1
1
1
1
1
1
1
1
1
1
1
1
1
1
1
1
1
1
1
1
1
1
1
1
1
1
1
1
1
1
1
1
1
1
1
1
1
1
1.73701e-14
3.07289e-11
3.98208e-10
0.076292
4.74293e-18
-1.98602e-13
-1.29636e-12
8.40352e-07
5.41112e-07
1.6514e-06
-5.15439e-08
-1.60363e-08
4.05673e-09
0.00555269
-3.57681e-10
0.0477703
-4.1295e-11
3.69405e-11
-1.13088e-19
1.25157e-12
-2.72397e-12
-4.14455e-12
-3.40204e-12
0.0186455
2.34092e-13
4.73245e-15
-1.05046e-14
1.37312e-15
4.26321e-16
-1.01942e-17
-1.07073e-17
-7.87641e-19
-3.64602e-06
-7.59848e-07
8.31567e-10
-2.14266e-10
4.20477e-18
2.03959e-18
-9.74103e-13
-9.00268e-13
-5.9372e-13
-2.55067e-16
6.36199e-11
-7.40886e-14
-8.63943e-14
3.91782e-13
1.09245e-16
-1.39292e-16
0.000171361
0.000193265
-1.93206e-11
5.97521e-11
-3.62069e-16
2.11028e-14
-2.07712e-10
-1.71115e-10
2.73804e-10
9.69006e-10
-1.5105e-09
2.31966e-08
3.09993e-07
-3.35346e-06
7.96506e-06
-3.29423e-05
0.000112728
-0.000159119
0.000275909
-0.00275503
-0.000997298
0.00449433
2.42673e-07
2.55168e-08
1
1
1
1
1
1
1
1
1
1
1
1
1
1
1
1
1
1
1
1
1
1
1
1
1
1
1
1
1
1
0.999999
1
0.999991
0.999992
0.999999
0.999993
1.00002
1.00001
1.00004
1.00004
1
1.00004
0.999854
0.999914
0.999702
0.999701
0.999958
0.999745
1.00083
1.00041
1.0019
1.00154
1.00218
1.00248
1.00016
1.0019
0.993126
0.997523
0.977023
0.985701
0.94888
0.962628
0.907424
0.926593
0.850647
0.876635
0.780892
0.810547
0.703213
0.735253
0.617765
0.653334
0.529231
0.564037
0.442705
0.477203
0.361248
0.392707
0.288147
0.315335
0.222191
0.245469
0.168866
0.185615
0.126218
0.139923
-2.69953e-10
-5.9888e-10
-1.79547e-10
0.0315338
0.0473565
1.12595e-16
3.4117e-20
4.35584e-11
1.77104e-11
-0.00209076
6.34135e-21
0.92558
7.76873e-07
0.0782059
5.58844e-20
-5.68857e-13
-2.14188e-14
0.017712
3.10786e-09
-1.24355e-07
-6.15994e-08
-5.54517e-08
3.90269e-09
9.41106e-12
4.25197e-13
1.09682e-13
-1.97204e-14
-1.40504e-15
1.10972e-15
8.44276e-17
-1.91419e-17
-3.74998e-18
-1.87637e-18
0.00947254
0.0324613
-1.09001e-05
-1.1325e-05
-4.7997e-10
-6.8883e-10
0.959572
-7.53754e-16
6.48518e-12
-1.04765e-08
-8.3024e-09
1.2323e-09
2.43499e-08
6.32877e-10
-1.76345e-07
6.13566e-07
4.91371e-06
-2.64966e-05
0.000103012
-0.000175282
0.000207085
-0.00159438
-0.00151704
0.0767339
0.0425133
0.0988166
-2.59785e-17
8.82704e-07
2.95549e-05
-1.961e-05
-0.00291641
0.000316636
-0.000180919
0.00013268
-3.9338e-05
9.17764e-06
2.46752e-18
-2.91754e-18
-0.00146462
0.000154356
-0.000134374
-0.00337853
0.000562474
-0.00375685
8.7116e-05
0.684452
-2.25633e-05
3.82963e-06
8.41887e-07
-1.10763e-17
-3.73587e-17
3.31559e-16
2.49148e-15
-7.06394e-15
-3.22716e-14
-1.45471e-09
5.16212e-20
-0.000220651
-0.000990867
0.000205258
-9.30517e-16
0.78693
9.38139e-20
2.878e-13
2.16538e-17
1.2404e-15
-2.80328e-19
1.73812e-15
8.09465e-09
-2.71621e-14
5.64728e-14
-1.98951e-18
7.29215e-10
-1.61598e-07
-1.79487e-11
-1.40513e-15
6.75587e-12
1.47031e-09
-3.2875e-06
2.18112e-07
0.322933
-6.72599e-12
1.0091
1.00853
1.01706
1.00223
1.00742
0.999796
1.00081
0.999654
0.999394
0.999897
0.999686
1.00001
0.999964
1.00002
1.00003
1.00001
1.00002
0.999999
1
0.999999
0.999998
1
0.999999
1
1
1
1
1
1
1
1
1
1
1
1
1
1
1
1
1
1
1
1
1
1
1
1
1
1
1
1
1
1
1
1
1
1
1
1
1
1
1
1
1
1
1
1
1
1
1
1
1
1
1
1
1
1
1
1
1
1
1
1
1
1
1
-2.37684e-06
-2.55113e-19
-1.68305e-07
1.99706e-17
1.20213e-09
-1.19179e-15
-6.88551e-08
-5.1131e-15
0.0653974
-7.08986e-18
-2.3195e-10
-1.20852e-10
1.44135e-09
-1.27613e-12
0.000149453
4.15318e-16
0.0265344
-1.89333e-18
2.39575e-13
9.68426e-14
3.90043e-14
-5.80185e-09
-2.5099e-15
8.61257e-16
1.03728e-15
1.2944e-16
9.28891e-17
-0.00267934
-6.22872e-10
1.05719e-09
3.34386e-09
0.0449323
1.75041e-17
6.06396e-12
0.000166277
5.50987e-11
1.96023e-14
-3.18093e-12
-3.59346e-12
0.873027
-3.79765e-06
8.61983e-09
-1.55511e-07
0.211792
-7.33573e-18
-1.39472e-17
5.41353e-07
-3.78692e-06
4.64121e-18
1.5975e-18
1.9099e-17
5.65483e-06
-2.33253e-05
0.000132844
-0.000245788
0.000287735
-2.83292e-05
-0.00257105
0.000381539
7.49266e-07
-3.33948e-16
-1.50771e-15
1
1
1
1
1
1
1
1
1
1
1
1
1
1
1
1
1
1
1
1
1
1
1
1
1
1
1
1
1
1
0.999992
0.999994
0.999997
0.999991
1.00002
1.00001
1.00004
1.00004
1.00002
1.00005
0.999879
0.999941
0.9997
0.99972
0.999889
0.999708
1.00064
1.00026
1.00165
1.00126
1.00219
1.0023
1.00096
1.00229
0.995102
0.99908
0.980752
0.989004
0.955253
0.968191
0.916571
0.935927
0.862622
0.888181
0.795921
0.825542
0.719198
0.752825
0.634727
0.670475
0.547842
0.583934
0.461204
0.497239
0.378128
0.411499
0.302216
0.331297
0.232309
0.258165
0.173527
0.192767
0.125199
0.13739
-1.68436e-10
-6.31542e-10
4.56885e-09
0.0103291
0.00973871
0.0251075
-3.8732e-05
-3.24255e-05
-1.06098e-05
-9.12719e-06
-1.20052e-14
-1.03608e-14
-0.00345243
-0.000296611
9.74612e-17
1.10695e-16
-1.98957e-16
6.17977e-09
6.51387e-09
7.98091e-09
1.39652e-07
6.02424e-07
-2.46434e-08
2.60183e-14
-5.86944e-13
3.84642e-13
-2.54014e-18
-1.60697e-18
0.000386236
0.000200572
9.16652e-07
0.0728844
-3.09706e-16
6.9498e-16
0.10776
2.73427e-13
-3.51039e-05
3.83172e-11
0.0406571
3.92358e-16
5.68906e-11
-3.31474e-18
-4.75364e-08
-0.00378283
-2.29744e-14
-1.04027e-07
1.60378e-15
1.57949e-06
4.35619e-11
1.52149e-11
-3.21673e-08
-3.10411e-14
0.104248
1.45874e-07
-3.97642e-14
2.03003e-09
2.64615e-10
-8.35045e-06
-1.99214e-05
5.2708e-13
5.95463e-12
0.97501
-1.71086e-11
0.658389
4.8389e-11
5.95432e-16
-5.84662e-16
-1.11503e-08
3.24085e-10
-3.45837e-10
-1.39516e-08
0.739487
6.80386e-09
6.0793e-06
1.00093
4.599e-07
7.7001e-06
0.0211096
0.000106051
-0.000122343
-4.86856e-10
-6.21848e-10
-5.91222e-10
-1.31838e-12
1.47713e-13
7.98307e-07
-8.54613e-18
4.07608e-13
-1.23028e-12
6.51298e-06
-0.00115442
-0.000199005
-8.27722e-13
-5.33491e-12
-0.00506771
-0.00383963
-1.53777e-10
-1.88681e-10
3.66241e-07
0.91765
-1.46175e-11
2.31908e-14
0.000235694
-0.000199271
7.46598e-06
0.000135066
-0.000154968
2.2686e-14
-8.0903e-06
6.50993e-07
1.00927
1.00429
1.00996
1.0005
1.00288
0.999622
0.999815
0.999768
0.999512
0.999959
0.999821
1.00002
1
1.00001
1.00003
1
1.00001
0.999999
0.999999
0.999999
0.999998
1
0.999999
1
1
1
1
1
1
1
1
1
1
1
1
1
1
1
1
1
1
1
1
1
1
1
1
1
1
1
1
1
1
1
1
1
1
1
1
1
1
1
1
1
1
1
1
1
1
1
1
1
1
1
1
1
1
1
1
0.705216
0.0911273
-1.18232e-14
1.59663e-09
-7.62762e-18
2.54061e-13
-5.85021e-15
0.0526417
0.0817341
1.12014e-05
-1.40818e-11
-8.6495e-08
-1.60118e-10
1.37893e-16
-0.00391826
-5.34067e-05
6.12435e-09
-1.15177e-07
0.323259
3.40818e-16
3.59501e-16
-2.11042e-08
-4.61706e-05
2.0273e-13
4.96023e-13
5.14617e-16
7.46074e-16
7.99704e-05
-5.18064e-10
-4.97127e-10
-3.277e-15
-1.70702e-15
-7.65198e-14
2.37553e-15
2.64092e-14
-0.000695855
-0.0092957
0.00117501
4.414e-18
3.37045e-17
1.16698e-16
2.4482e-17
-4.11263e-06
9.64533e-06
0.000208731
0.000125296
0.0676589
3.79397e-07
-4.36454e-06
-8.19913e-14
-0.00541554
0.000585025
4.09155e-13
0.0712045
0.0315684
0.109768
-0.000325509
-0.000103013
0.882953
0.720368
-2.14383e-06
0.00019067
8.63023e-14
4.06229e-14
1
1
1
1
1
1
1
1
1
1
1
1
1
1
1
1
1
1
1
1
1
1
1
1
1
1
1
0.999993
0.999996
0.999994
0.99999
1.00001
1
1.00004
1.00003
1.00004
1.00006
0.999905
0.999973
0.999707
0.999749
0.999826
0.999684
1.00045
1.00011
1.00138
1.00096
1.00212
1.00203
1.00161
1.00261
0.997098
1.00048
0.984962
0.992427
0.962318
0.974517
0.927173
0.945358
0.877384
0.902138
0.813162
0.843646
0.738009
0.772439
0.655652
0.691877
0.569758
0.60749
0.482828
0.520223
0.399546
0.435153
0.319546
0.352634
0.245775
0.275202
0.182024
0.207015
0.122808
5.27704e-05
0.000174644
1.24349e-05
-1.54547e-05
-1.96931e-05
-1.89356e-15
7.72076e-16
-2.12897e-14
-2.81768e-14
-0.00424976
-0.0045515
-1.32307e-07
5.42783e-07
-2.1186e-12
-1.91028e-05
5.78943e-12
2.64455e-13
2.09177e-09
8.32166e-17
-0.00409897
0.0189517
6.71511e-16
-0.0110106
-0.00772794
3.77191e-13
0.14474
0.0398011
0.0758034
4.27089e-06
5.37144e-07
0.18927
-1.08913e-14
-4.02694e-11
2.5832e-11
-4.93342e-05
4.953e-07
2.6422e-07
-3.27829e-10
1.13041e-09
0.000269029
0.000310961
-1.30091e-08
-1.09927e-08
1.66784e-12
1.66211e-05
-1.37105e-05
-0.000272706
5.51324e-12
6.16583e-12
-1.08634e-11
-5.91076e-07
-1.8012e-09
-1.63039e-09
-3.35751e-14
4.45176e-11
1.74152e-10
-2.49288e-10
-9.10048e-10
1.00726
0.992244
5.79134e-18
-6.48718e-14
7.18437e-07
3.96649e-17
4.42565e-17
1.09538e-16
0.239597
-0.000568332
-5.03946e-06
-6.99716e-14
-3.45433e-08
-9.43415e-08
-1.41772e-08
1
1
5.74915e-09
9.66314e-09
-2.43156e-08
4.11246e-11
1.07566e-06
1.14923e-06
1.21498e-06
-0.000322716
-1.72131e-12
-1.63155e-12
1.01711e-12
-8.07603e-13
-1.00969e-13
0.0033092
-0.00301171
-0.00762379
-0.00187655
1.13649e-11
2.81487e-12
4.17637e-13
-4.76205e-16
-3.00395e-16
-2.35724e-15
1.06845e-08
6.70361e-09
-1.38163e-07
0.00181335
-1.28712e-10
-1.75768e-10
0.926392
0.0183447
3.11917e-13
-0.000396731
1.00652
1.0016
1.0051
0.999788
1.00058
0.99964
0.999493
0.999871
0.999658
1
0.999934
1.00002
1.00003
1.00001
1.00002
1
1
0.999999
0.999998
0.999999
0.999998
1
1
1
1
1
1
1
1
1
1
1
1
1
1
1
1
1
1
1
1
1
1
1
1
1
1
1
1
1
1
1
1
1
1
1
1
1
1
1
1
1
1
1
1
1
1
1
1
1
1
1
1
1
1
1
0.461913
1
-6.69973e-06
-8.27304e-06
-0.00602041
0.0423318
-3.76971e-15
0.000152063
8.13121e-14
-2.92997e-12
2.77732e-14
1.39391e-05
-4.46779e-06
0.441637
-1.72614e-14
-5.37534e-14
-4.66132e-14
3.1408e-13
-5.10847e-10
-0.00181181
-0.00598427
-4.02466e-13
2.81752e-07
3.20935e-11
0.00795097
3.8191e-11
6.9507e-11
3.66325e-11
1.16609e-16
0.000193266
0.000256987
0.480209
-7.90444e-16
-2.78432e-16
0.980044
-1.00347e-14
-1.01605e-14
-6.70781e-08
0.145562
1.88411e-10
2.96005e-11
-1.9179e-11
-5.44206e-12
-2.67741e-12
0.380168
0.0627593
5.54618e-12
-2.81806e-08
-8.20808e-08
1
1.0092
1.01154
1.00152
9.19193e-08
-4.3684e-06
1.22602e-05
2.79221e-05
-0.000342735
0.811422
0.898621
0.516607
4.62325e-05
0.000101165
2.30907e-09
6.74295e-09
7.89141e-10
0.000266991
9.09715e-05
2.54161e-13
2.5415e-13
1
1
1
1
1
1
1
1
1
1
1
1
1
1
1
1
1
1
1
1
1
1
1
0.999995
0.999998
0.999992
0.99999
1.00001
0.999996
1.00003
1.00002
1.00005
1.00006
0.999937
1
0.999741
0.999797
0.999795
0.999699
1.00027
0.999973
1.00105
1.00065
1.00191
1.00167
1.00205
1.00269
0.998957
1.00159
0.989163
0.995582
0.969373
0.980905
0.938305
0.954927
0.892956
0.916655
0.832494
0.861701
0.760634
0.793459
0.679041
0.716065
0.594727
0.631408
0.509495
0.547477
0.423324
0.460481
0.343078
0.376794
0.267374
0.299632
0.199176
0.228652
0.100355
0.094673
0.135791
5.07651e-15
2.99972e-14
-1.15143e-15
-2.53902e-14
-0.00363987
0.00604773
8.14411e-07
4.47056e-07
3.2817e-05
0.000251117
-1.68655e-08
-3.19302e-15
-2.20234e-05
-1.43011e-05
-1.97347e-12
-3.23129e-12
-0.0016731
-6.34324e-05
-6.3907e-05
-8.70081e-10
-4.16743e-10
-0.00471349
3.11463e-11
2.45579e-11
4.11947e-14
-2.40827e-12
-1.91006e-12
-2.38377e-14
0.227186
3.18631e-16
1.97183e-16
7.07127e-07
8.02063e-05
3.26367e-05
1.05773e-06
9.21179e-07
1.36926e-09
-0.00126084
0.0310028
-9.07621e-12
2.13887e-11
0.028509
0.0593333
3.04599e-13
-4.62424e-06
-2.9712e-05
1.25565e-09
-7.055e-11
-6.91685e-16
4.90393e-17
-5.25253e-16
-7.6956e-08
-6.57466e-08
1
5.50278e-12
-5.99508e-12
0.0898452
0.017623
-3.97456e-08
-3.30777e-08
0.160942
0.000143365
0.000315527
9.11758e-05
2.83053e-12
5.91283e-12
-1.97443e-12
-1.79651e-12
1.85911e-12
-0.00493101
-0.00382035
-1.04491e-10
-1.4867e-10
3.66893e-08
-7.36875e-08
-2.61772e-15
-3.24135e-15
3.45627e-15
-1.27377e-05
-4.04011e-06
1.19631e-05
2.16733e-13
-2.05547e-09
-2.23149e-09
5.11756e-13
-7.30977e-15
-1.85348e-12
1.00315
1.00032
1.00206
0.999611
0.999788
0.999759
0.999524
0.999949
0.99981
1.00002
0.999991
1.00002
1.00003
1
1.00001
0.999999
1
0.999999
0.999998
1
0.999999
1
1
1
1
1
1
1
1
1
1
1
1
1
1
1
1
1
1
1
1
1
1
1
1
1
1
1
1
1
1
1
1
1
1
1
1
1
1
1
1
1
1
1
1
1
1
1
1
3.30943e-14
-4.82521e-05
1.09198e-14
2.40138e-13
2.09627e-05
0.120341
2.87945e-08
-0.00809532
-7.69047e-05
-0.000373861
0.000169748
0.0467002
0.156162
0.0836232
0.082162
0.118761
-7.83359e-15
-1.23588e-14
-0.000373806
-4.54756e-06
0.000136066
-0.000323544
-0.000456925
3.58933e-05
7.73281e-17
1
3.20798e-13
4.9162e-13
1
1
1
1
1
1
1
1
1
1
1
1
1
1
1
1
1
1
1
1
0.999997
1
0.999992
0.999992
0.999999
0.999992
1.00003
1.00001
1.00005
1.00006
0.99997
1.00002
0.999788
0.999854
0.999781
0.999731
1.0001
0.999874
1.00073
1.00035
1.00167
1.00131
1.00236
1.00256
1.00052
1.0025
0.99305
0.998008
0.976945
0.98667
0.949287
0.964223
0.909016
0.929663
0.852761
0.880808
0.782361
0.815474
0.704845
0.741135
0.621108
0.6594
0.536362
0.573355
0.450692
0.486308
0.366433
0.398836
0.293167
0.323522
0.225638
0.187546
0.259198
1.12384e-08
-4.26721e-08
8.58664e-07
-8.22715e-07
1.87898e-06
8.9282e-14
6.7452e-14
0.0153768
0.04323
-3.51188e-07
-4.95465e-06
-0.00742323
-0.00937783
0.000329899
5.18435e-05
-0.00363693
-0.00823719
-3.40692e-10
6.30677e-09
-2.34179e-05
-7.92916e-05
9.3559e-17
2.02435e-16
9.52042e-17
0.800147
-5.21858e-12
1.00668
-3.77607e-14
-4.45861e-14
1
1.00742
1.0082
-3.30899e-10
-7.76139e-11
-0.00339937
1.55198e-08
1
4.39607e-11
-2.70077e-15
-5.66699e-08
-3.67861e-12
-4.68786e-12
-0.000401336
1
1.01123
5.48742e-11
2.22003e-11
-0.00306925
-1.63175e-09
7.74004e-10
0.000170291
0.000111068
1.32783e-06
-1.44928e-10
5.35142e-12
1.499e-05
1.62358e-05
-3.59144e-15
-0.00162016
6.18781e-12
-9.40484e-11
8.60678e-07
9.68379e-07
-1.53298e-13
-8.31357e-15
5.00844e-18
-0.00224638
-1.10347e-15
4.06207e-09
-1.52891e-07
0.967021
0.990011
0.880757
-8.80525e-08
-1.22187e-07
-1.25832e-12
0.406815
0.52581
0.186207
5.84071e-09
4.92216e-09
2.10569e-10
3.37216e-13
-5.6163e-12
-1.15412e-12
3.55333e-13
-3.6307e-08
-9.14587e-09
2.56986e-13
-1.33107e-05
-1.8578e-05
-2.11031e-12
0.000257582
0.000234589
1.75049e-07
4.22915e-11
6.63366e-11
-0.00392399
-1.46301e-10
4.00591e-11
-0.00714446
-0.00703087
8.67251e-05
9.83228e-15
3.65236e-14
2.69098e-09
3.43291e-10
-3.36503e-15
-4.25373e-15
7.81246e-15
-1.66421e-05
5.67024e-10
-9.58808e-10
1.81115e-06
8.25568e-07
5.41843e-05
-3.44207e-15
0.0122283
0.00032294
-0.000470397
1.35629e-12
1.40699e-11
-4.44985e-12
1.00543
2.08722e-08
1.66193e-08
1.00132
1.00409
0.999727
1.00042
0.999636
0.999493
0.999871
0.999672
1
0.999931
1.00002
1.00002
1.00001
1.00002
1
1.00001
0.999999
0.999999
0.999999
0.999999
1
1
1
1
1
1
1
1
1
1
1
1
1
1
1
1
1
1
1
1
1
1
1
1
1
1
1
1
1
1
1
1
1
1
1
1
1
1
1
1
1
1
1
1
1
1
1
-1.697e-13
0.000387387
1.00185
7.33175e-14
-0.00140069
0.000429476
-1.90801e-12
-3.31864e-10
-1.36833e-10
1.81378e-13
-4.35401e-15
-1.67418e-12
-1.19869e-12
-6.94192e-08
-4.3938e-08
1.0359e-06
-1.1593e-15
1.69527e-05
0.000158379
0.000386471
0.0266445
1.92665e-13
-8.38938e-16
-3.25061e-15
-8.61254e-16
1.15717e-07
6.26655e-07
-5.34794e-08
1.86288e-13
1.93656e-13
5.08323e-10
0.00012028
-0.00129153
0.00142772
0.0236479
1
1
2.66768e-12
4.09903e-12
1
1
1
1
1
1
1
1
1
1
1
1
1
1
1
1
1
1
0.999999
1
0.999993
0.999994
0.999995
0.999991
1.00002
1.00001
1.00005
1.00005
0.999996
1.00004
0.999844
0.999905
0.999805
0.999789
0.999986
0.999838
1.00044
1.00012
1.00138
1.00098
1.00239
1.0023
1.00154
1.00285
0.995806
0.999796
0.982841
0.990444
0.958986
0.972031
0.92181
0.94032
0.870986
0.895489
0.805092
0.835218
0.730219
0.76353
0.649729
0.686328
0.56194
0.599283
0.472285
0.508252
0.383996
0.414623
0.308299
0.328643
-3.91743e-12
-4.45258e-12
-4.3573e-06
1.57687e-05
-0.00509821
-0.00953309
-0.000134868
-0.000433318
-0.00992136
-0.000765625
1.17335e-08
-8.04342e-05
0.000118699
1.00993
1.0101
-1.97279e-12
-7.06005e-08
1.9105e-08
-2.3723e-08
-5.15424e-14
6.82769e-09
-2.0584e-05
1.22421e-09
2.36844e-08
1.01004
0.262635
2.0063e-11
-2.48494e-12
-6.68951e-12
-0.00202113
9.09723e-10
1.17251e-09
-1.33804e-11
4.70307e-11
1.00789e-06
-4.15429e-08
-1.82164e-11
2.4817e-13
-0.000344297
1.60329e-07
9.63489e-07
-2.35099e-10
-3.50659e-15
2.43867e-07
1.94975e-13
1.76002e-14
0.97733
0.948336
-0.00607975
0.415644
0.152791
0.190146
6.07774e-12
-3.31992e-05
-4.12056e-05
0.0642597
0.0672471
-1.21603e-14
2.09327e-14
-1.77383e-12
0.0315322
-0.0102587
-8.35077e-05
-1.33088e-10
-4.6767e-10
-2.18574e-12
-7.72421e-07
6.14898e-14
9.83156e-09
0.00943255
0.775529
0.856433
0.520652
3.6746e-13
0.120649
7.46628e-09
5.48287e-12
3.01079e-12
0.113274
0.114225
0.15781
0.000297382
0.000351134
-2.47024e-05
-1.10646e-05
-1.68782e-10
9.66933e-05
4.02017e-14
-3.12563e-14
-1.41737e-06
-0.0052235
-4.2116e-06
-0.00840622
-0.00933471
-1.21137e-07
-9.10115e-08
-0.00588785
-5.90925e-10
-5.6933e-10
0.000307756
0.000276426
-6.22711e-09
-6.81351e-06
-3.43634e-06
1.06969e-14
-4.60821e-06
-2.14998e-07
2.11289e-09
9.95364e-09
-6.78802e-11
1.99781e-11
-1.09016e-07
-1.10205e-07
1.00836
-7.69326e-06
-0.000264924
1.00287
1.00695
1.00006
1.00149
0.999541
0.999561
0.999767
0.999516
0.999963
0.999843
1.00002
1
1.00002
1.00003
1
1.00001
0.999999
1
0.999999
0.999998
1
0.999999
1
1
1
1
1
1
1
1
1
1
1
1
1
1
1
1
1
1
1
1
1
1
1
1
1
1
1
1
1
1
1
1
1
1
1
1
1
1
1
1
1
1
1
6.35624e-09
-0.00917546
0.203942
0.00017319
2.05359e-09
1.84639e-09
1.49831e-14
1.69829e-14
-3.58808e-12
1.73181e-06
1.27132e-06
-1.23851e-06
1.3459e-13
-1.6027e-08
1.32789e-07
-6.65986e-05
-1.7807e-13
2.91157e-14
0.233191
5.04042e-12
3.25535e-12
6.71224e-12
-2.20961e-11
-2.0757e-11
2.9704e-14
3.00263e-14
-4.9575e-10
6.96392e-09
2.40592e-09
-0.00315159
-0.00882602
0.044562
4.13381e-05
-6.5577e-06
-6.42563e-05
-7.98534e-05
0.000430996
-0.000109235
6.36351e-14
6.32351e-14
1
1
1
1
1
1
1
1
1
1
1
1
1
1
1
1
1
1
1
1
0.999994
0.999996
0.999993
0.999991
1.00001
0.999999
1.00005
1.00004
1.00001
1.00004
0.999887
0.999942
0.999829
0.999835
0.999902
0.999814
1.00019
0.999947
1.00109
1.00068
1.00232
1.00203
1.00227
1.00304
0.99813
1.00108
0.987375
0.993751
0.966676
0.977918
0.933458
0.949609
0.885731
0.908558
0.823655
0.852028
0.753427
0.785618
0.674327
0.709669
0.585802
0.621176
0.493555
0.530484
0.395147
0.431565
0.303192
0.330392
-3.69266e-12
-6.79544e-12
-2.87776e-10
-7.09835e-10
-1.87177e-10
-0.00384498
-0.00122037
-0.000144801
-0.00283042
1.62726e-05
-5.31987e-05
0.00343602
-0.00547394
-0.000506874
-0.000228944
0.00900869
0.0401379
0.000260495
0.000455558
0.988895
-3.33769e-08
-9.4045e-08
-1.65783e-08
2.20221e-07
-1.86895e-05
-2.79407e-05
-1.88489e-05
-0.000487377
-3.91509e-10
1.55492e-08
-1.33933e-05
-5.89891e-10
-1.0494e-09
2.33158e-09
6.43563e-12
-5.90655e-13
-5.10365e-10
-0.0115318
-0.0108747
1.82831e-07
0.141512
-0.00865425
1.12484e-06
-5.59385e-07
1.01093
4.39494e-14
0.246466
-3.80507e-12
-1.40508e-12
-4.11244e-06
-3.55456e-06
-3.02136e-08
0.000206718
0.0278305
4.69697e-07
-1.07261e-12
-1.55454e-07
-1.57732e-07
2.79733e-09
-8.59266e-11
0.000255706
-0.000274372
0.000526558
-1.61499e-12
-3.51458e-10
2.85877e-09
-5.01697e-10
-7.7408e-10
6.53828e-09
-1.40906e-08
1.93707e-10
1.2064e-13
6.51779e-11
4.01875e-11
1.26631e-11
3.93589e-11
3.42865e-12
0.00552188
0.0440114
0.398475
0.201112
0.0925565
0.0967456
1.01332
0.000210731
-6.46188e-14
-8.96678e-13
2.00149e-13
1.30391e-13
-0.0083109
-0.0137785
9.07918e-07
7.17726e-07
-1.69723e-13
-1.14365e-13
-1.48908e-12
0.943215
0.905741
3.54951e-12
5.79389e-12
0.000357631
0.000429946
1.71881e-05
-1.07708e-05
-2.78004e-06
1.00546
-5.48336e-11
-5.48484e-11
0.15114
0.153124
1.4106e-05
-3.18805e-10
-7.55402e-11
1.00554
1.00098
1.00383
0.999559
1.00004
0.999625
0.999374
0.99989
0.999693
1.00001
0.999959
1.00002
1.00003
1.00001
1.00002
1
1
0.999998
0.999998
0.999999
0.999998
1
1
1
1
1
1
1
1
1
1
1
1
1
1
1
1
1
1
1
1
1
1
1
1
1
1
1
1
1
1
1
1
1
1
1
1
1
1
1
1
1
3.47809e-07
1.12884e-06
-0.00802306
-0.00320816
-1.49409e-09
-8.62357e-08
0.134406
-0.000585066
1.29069e-06
4.6888e-14
5.3089e-14
-3.47549e-14
0.960607
-3.45237e-12
4.38623e-08
1.13901e-08
2.86176e-07
-2.82993e-06
1.48176e-05
-1.02463e-12
0.108714
-2.21686e-09
-1.89385e-09
-2.72069e-12
-2.76649e-12
-1.38976e-10
-6.26508e-10
6.73438e-12
6.54703e-12
9.79175e-10
-2.4972e-10
1.03622e-08
5.20763e-09
0.0221967
-0.0122141
0.722887
0.786149
0.474099
0.000161444
3.70051e-05
0.203462
-3.3293e-05
-8.37625e-10
-0.00039341
-0.000582248
6.13828e-14
5.69614e-14
1
1
1
1
1
1
1
1
1
1
1
1
1
1
1
1
1
1
0.999996
0.999998
0.999992
0.999991
1
0.999995
1.00004
1.00003
1.00002
1.00004
0.99992
0.999967
0.999864
0.99988
0.999858
0.999811
1.00003
0.999835
1.00087
1.00046
1.00218
1.00179
1.00258
1.00297
0.999458
1.00176
0.990583
0.995876
0.972562
0.981943
0.94224
0.957084
0.89771
0.918844
0.840825
0.86683
0.774793
0.80531
0.695538
0.729287
0.603076
0.63691
0.50798
0.53948
0.412478
0.447544
3.64391e-12
-1.91151e-12
-0.00915939
-0.0107741
0.0182004
-0.00564743
-0.012035
-8.50281e-05
-6.1935e-05
0.0222844
0.00242452
-0.000820691
-0.00522918
4.63857e-14
4.90118e-14
1.00759
0.987439
0.0695609
0.132118
0.000449344
-0.000204502
0.210599
1.14955e-06
-1.45887e-07
1.74415e-06
-5.57271e-10
2.00815e-08
-1.78146e-05
3.40856e-07
-2.52877e-05
-0.000863085
-5.1743e-12
0.000315915
-9.53335e-11
0.196525
0.197308
6.41341e-09
-5.76576e-10
-0.0097382
2.62669e-11
2.05778e-11
-1.0238e-10
-1.99772e-05
0.138454
0.335944
0.0776274
6.17417e-12
-4.3928e-08
-1.58417e-12
-8.88572e-11
-0.000273617
0.000249317
3.62148e-09
8.90265e-12
-3.04543e-13
1.01194
6.23492e-11
-6.40602e-10
0.872111
0.820733
0.0658971
-7.37224e-05
3.24103e-11
2.75062e-11
1.01534
-1.56775e-13
9.61033e-10
4.19639e-09
-8.19315e-11
0.00114671
-0.00828852
0.000377073
0.313428
-7.00072e-08
-1.29512e-07
-5.7244e-08
1.30089e-06
-1.07277e-12
-1.27415e-12
3.54937e-12
-6.32717e-06
-2.59244e-05
0.000262823
0.000466894
0.000510762
-1.56053e-06
-3.72948e-06
1.3531e-06
5.48186e-07
-2.07529e-07
-2.08473e-07
-7.95723e-13
0.000315588
-2.63654e-08
-1.24832e-09
-3.14279e-09
-3.2421e-09
1.01175
-7.97545e-14
4.27291e-11
6.81166e-11
6.73451e-09
1.4952e-11
-3.71054e-13
0.000102348
4.55679e-05
1.00272
0.999805
1.00106
0.999435
0.99927
0.999748
0.99943
0.999976
0.999851
1.00003
1.00002
1.00002
1.00004
1
1.00001
0.999998
1
0.999999
0.999997
1
0.999999
1
1
1
1
1
1
1
1
1
1
1
1
1
1
1
1
1
1
1
1
1
1
1
1
1
1
1
1
1
1
1
1
1
1
1
1
1
-1.31255e-10
-1.51146e-10
-0.00202083
-0.00216676
0.000272812
-0.0100082
-0.00525976
-8.96427e-14
-1.94692e-05
-7.59296e-06
0.000449288
-1.59534e-12
-1.39743e-12
-0.0149797
0.000503017
0.000528518
7.43324e-09
-4.83429e-14
7.01544e-06
-2.34261e-12
-3.20795e-12
-3.8891e-10
-6.26761e-10
3.70842e-09
9.54096e-12
1.28016e-11
6.8629e-12
0.10846
0.256042
1.61057e-12
-1.78651e-12
0.359223
0.992798
1.21605e-08
-0.000833439
-0.00217259
1.15283e-06
-8.17234e-07
1
1
1.01298
1.00739
1
1
1
1
1
1
1
1
1
1
1
1
1
1
0.999997
0.999999
0.999992
0.999992
0.999999
0.999992
1.00003
1.00002
1.00003
1.00004
0.99995
0.999988
0.999897
0.999919
0.999825
0.999812
0.999902
0.999749
1.00069
1.0003
1.002
1.00157
1.00267
1.00285
1.00031
1.00208
0.993078
0.997499
0.977026
0.985658
0.949293
0.963195
0.909263
0.928626
0.856585
0.88145
0.793323
0.822661
0.712795
0.746023
0.611809
0.64619
0.5073
0.536577
1.89703e-11
1.31533e-11
1.85947e-05
0.000439485
0.0718793
0.0410178
-0.00909327
-0.015026
-0.000540816