/*--------------------------------*- C++ -*----------------------------------*\
  =========                 |
  \\      /  F ield         | OpenFOAM: The Open Source CFD Toolbox
   \\    /   O peration     | Website:  https://openfoam.org
    \\  /    A nd           | Version:  7
     \\/     M anipulation  |
\*---------------------------------------------------------------------------*/
FoamFile
{
    version     2.0;
    format      ascii;
    class       volScalarField;
    location    "0.36";
    object      T;
}
// * * * * * * * * * * * * * * * * * * * * * * * * * * * * * * * * * * * * * //

dimensions      [0 0 0 1 0 0 0];

internalField   nonuniform List<scalar> 
45544
(
0
0
0
0
0
0
0
0
0
0
0
0
0
0
0
0
0
0
0
0
0
0
0
0
0
0
0
0
0
0
0
0
0
0
0
0
0
0
0
0
0
0
0
0
0
0
0
0
0
0
0
0
0
0
0
0
0
0
0
0
0
0
0
0
0
0
0
0
0
0
0
0
0
0
0
0
0
0
0
0
0
0
0
0
0
0
0
0
0
0
0
0
0
0
0
0
0
0
0
0
0
0
0
0
0
0
0
0
0
0
0
0
0
0
0
0
0
0
0
0
0
0
0
0
0
0
0
0
0
0
0
0
0
0
0
0
0
0
0
0
0
0
0
0
0
0
0
0
0
0
0
0
0
0
0
0
0
0
0
0
0
0
0
0
0
0
0
0
0
0
0
0
0
0
0
0
0
0
0
0
0
0
0
0
0
0
0
0
0
0
0
0
0
0
0
0
0
0
0
0
0
0
0
0
0
0
0
0
-2.93403e-46
1.13006e-39
5.4095e-34
-1.04041e-33
-1.42304e-30
7.75555e-30
1.73054e-28
1.25414e-28
-7.21456e-28
-3.53497e-28
-4.21486e-29
9.04096e-28
1.62206e-27
-1.40162e-27
-5.04918e-27
-2.27637e-26
2.04925e-26
8.48739e-26
-8.14755e-25
-1.90477e-25
-2.58857e-24
-1.88335e-24
-1.30422e-24
2.33875e-24
2.45257e-24
7.08728e-25
5.15182e-24
-5.11092e-25
2.00228e-24
-7.56352e-24
-9.6402e-24
-2.32017e-23
-3.31804e-23
-3.45963e-23
-3.088e-23
3.88399e-24
1.53767e-23
2.09401e-23
1.96806e-23
1.81342e-23
1.76375e-23
1.42905e-23
1.05277e-23
3.72849e-24
3.01267e-24
2.3149e-25
1.04816e-25
-2.68595e-25
-6.38115e-25
-6.09791e-25
-5.06305e-25
-3.63748e-25
-2.57632e-25
-1.79897e-25
-1.0605e-25
-6.21857e-26
-1.68911e-26
-9.0847e-27
-3.94744e-27
3.32839e-27
2.37069e-27
2.44206e-27
1.48312e-27
1.1195e-27
6.60656e-28
3.9042e-28
2.46232e-28
1.0669e-28
5.30253e-29
2.83066e-29
1.40945e-29
4.79996e-30
-1.15222e-30
-7.87207e-31
-8.13957e-31
-6.9396e-31
-4.27787e-31
-2.82394e-31
-1.49761e-31
-8.55253e-32
-4.6357e-32
-2.31454e-32
-1.16632e-32
-5.64e-33
-2.90029e-33
-1.46028e-33
-6.53831e-34
-3.12487e-34
-6.85615e-35
-2.77688e-34
9.46482e-31
0
0
0
0
0
0
0
0
0
0
0
0
0
0
0
0
0
0
0
0
0
0
0
0
0
0
0
0
0
0
0
0
0
0
0
0
0
0
0
0
0
0
0
0
0
0
0
0
0
0
0
0
0
0
0
0
0
0
0
0
0
0
0
0
0
0
0
0
0
0
0
0
0
0
0
0
0
0
0
0
0
0
0
0
0
0
0
0
1.86177e-120
2.32721e-120
1.87587e-120
2.34484e-120
1.20189e-120
1.50236e-120
7.74287e-121
9.67859e-121
6.87215e-118
8.59018e-118
4.37199e-118
5.46499e-118
2.661e-117
-8.16893e-117
1.37205e-115
1.55053e-115
1.63694e-115
1.93633e-115
2.43093e-115
2.47205e-115
1.92967e-115
9.01136e-116
1.81317e-114
2.13175e-114
6.31388e-114
7.26677e-114
4.16096e-114
4.79484e-114
1.72808e-113
1.87099e-114
3.08773e-111
3.20736e-111
2.37454e-111
5.52465e-112
2.07531e-111
-4.5764e-112
1.08167e-111
-8.39512e-111
6.26515e-109
-2.57242e-108
1.23404e-106
9.67847e-107
7.38079e-106
-1.07604e-107
6.29571e-103
7.38598e-103
1.73126e-102
2.12331e-102
1.10528e-102
1.35309e-102
1.0803e-102
-4.05995e-103
2.42229e-101
2.83064e-101
3.07691e-101
3.64866e-101
1.41578e-100
1.46069e-100
-1.32986e-98
9.58486e-100
-2.66806e-96
-2.98808e-96
-1.73084e-96
-1.90776e-96
-1.41328e-96
2.66987e-98
-5.58854e-96
-6.23407e-96
3.80689e-95
1.19037e-94
4.41124e-92
1.86567e-92
3.87163e-90
3.70768e-90
1.74666e-90
5.48389e-91
5.10226e-89
-1.68571e-88
6.09148e-88
3.00178e-88
7.52278e-88
6.02615e-88
1.09889e-87
3.25246e-88
1.24538e-87
-6.43994e-88
6.01954e-87
6.15723e-87
5.65301e-87
-1.99497e-87
1.16803e-86
6.66474e-87
8.28932e-87
4.92357e-87
5.98253e-87
3.52473e-87
6.09037e-87
-4.26478e-87
3.47926e-86
1.84582e-86
2.04211e-85
2.05876e-85
6.39801e-85
6.04388e-85
4.38397e-85
4.14331e-85
2.9983e-85
2.75601e-85
6.53428e-85
4.4663e-85
1.19248e-84
1.21185e-84
7.62421e-85
7.16974e-85
1.52155e-84
-2.86785e-84
7.87709e-84
2.46531e-84
7.24993e-84
1.78219e-85
6.25142e-84
-7.31425e-86
6.87364e-84
-5.26766e-84
6.19101e-83
3.89509e-83
3.62244e-82
1.04956e-82
2.73842e-82
8.98499e-83
2.11699e-82
7.94048e-83
1.63908e-82
5.6519e-83
7.1678e-82
2.75592e-82
1.38881e-81
1.26166e-81
9.3861e-82
8.19941e-82
7.43256e-82
2.02995e-82
1.23194e-81
6.41867e-82
1.27448e-81
9.43678e-82
1.41256e-81
7.06809e-82
1.25828e-81
-2.64065e-82
1.68541e-81
5.07295e-82
3.12075e-81
-6.79468e-82
2.55316e-81
8.93564e-83
3.40028e-81
2.30877e-81
2.41235e-81
1.71704e-81
1.7728e-81
1.02341e-81
4.54911e-81
4.32017e-81
2.98346e-81
2.69659e-81
2.83483e-81
-1.13673e-81
5.84065e-81
1.18467e-81
6.31537e-81
3.39885e-81
6.8912e-81
2.54137e-81
6.37974e-81
-2.38123e-81
7.43582e-81
2.03344e-82
8.23573e-81
-6.48781e-81
1.01745e-80
1.20538e-81
9.49626e-81
3.97434e-81
7.24217e-81
2.43827e-81
6.61001e-81
3.56004e-81
6.16707e-81
4.3076e-81
5.51732e-81
-9.4868e-82
1.03646e-80
7.76661e-81
7.72337e-81
4.2969e-81
5.45717e-81
3.17086e-81
8.59285e-81
4.08677e-81
1.26002e-80
1.11511e-80
8.2907e-81
7.13197e-81
5.95174e-81
4.04418e-81
5.38435e-81
4.30648e-81
4.58861e-81
3.88443e-81
4.48707e-81
3.35987e-81
3.27376e-81
1.7439e-81
2.26669e-81
1.31025e-81
1.66151e-81
7.56633e-82
1.23489e-81
6.5556e-82
1.64986e-81
1.33188e-81
1.10587e-81
9.01818e-82
1.39631e-81
9.89182e-82
1.85488e-81
1.78066e-81
1.20974e-81
1.13002e-81
8.2442e-82
5.4726e-82
8.95512e-82
6.25961e-82
7.78174e-82
6.40149e-82
6.26183e-82
4.39186e-82
4.73724e-82
2.0643e-82
8.02248e-82
6.95396e-82
5.41489e-82
4.48501e-82
5.07035e-82
3.92404e-82
4.53491e-82
4.00341e-82
3.04303e-82
2.63192e-82
2.19208e-82
1.38595e-82
4.69977e-82
4.37503e-82
3.06435e-82
2.75337e-82
2.20612e-82
1.08252e-82
2.34117e-82
1.46093e-82
1.95379e-82
1.49015e-82
1.44705e-82
1.11941e-82
1.05651e-82
7.60382e-83
1.22631e-82
1.20917e-82
8.24796e-83
6.97115e-83
6.87762e-83
6.07703e-83
4.70102e-83
4.20755e-83
3.0661e-83
2.71134e-83
2.11594e-83
1.87706e-83
1.89623e-83
1.87997e-83
1.65334e-83
1.43247e-83
4.27951e-82
9.99398e-84
8.93588e-80
-1.82102e-80
1.70801e-76
-1.75983e-76
-4.8418e-74
-8.08552e-74
-7.45159e-74
-1.12204e-73
-4.54769e-74
-8.07998e-74
-2.18471e-73
-1.65081e-73
3.03688e-71
-1.32385e-71
3.26424e-68
1.7729e-68
2.71977e-67
-1.59619e-67
5.52973e-67
-5.28151e-65
-1.09541e-64
6.24121e-64
-6.83812e-63
-5.20153e-65
-2.34811e-60
-1.90173e-29
-2.4993e-27
2.85527e-25
-2.59316e-23
-6.23531e-23
2.63259e-20
5.38468e-19
4.33422e-18
1.80184e-17
4.7793e-17
8.42779e-17
1.15036e-16
1.34919e-16
1.46055e-16
1.54137e-16
1.6367e-16
1.75917e-16
1.80422e-16
1.661e-16
1.33828e-16
9.42754e-17
5.82704e-17
3.13638e-17
1.52648e-17
6.54429e-18
2.51328e-18
8.81763e-19
2.56541e-19
5.8033e-20
9.49988e-21
9.47794e-22
4.56789e-23
-6.98865e-25
-1.23241e-25
7.09231e-29
1.61607e-28
-3.29337e-30
-1.73325e-32
1.43844e-33
-4.23638e-35
4.27847e-37
2.01666e-40
-9.81113e-41
4.81532e-42
-5.29127e-44
-4.01999e-46
-2.55522e-49
-2.27485e-52
1.67715e-56
1.76282e-06
2.17136e-06
6.03001e-06
-4.54493e-06
-3.93876e-06
3.35868e-06
4.65949e-07
1.31603e-06
3.09961e-06
-6.0649e-06
-1.13267e-06
-1.56649e-05
-7.302e-06
-1.81642e-05
-1.66246e-05
-7.64028e-06
-1.35788e-05
1.05392e-05
-6.17965e-06
2.91022e-05
9.07522e-06
1.89817e-05
1.30166e-05
-2.69752e-05
-9.91701e-06
-0.000125104
-7.97433e-05
-0.000264032
-0.000219911
-0.000388641
-0.00042523
-0.000372167
-0.000666865
-3.23695e-05
-0.000907897
0.000853287
-0.00103844
0.0020459
-0.000486169
0.00471114
0.00921123
0.00777582
0.00961273
0.0104615
0.00868065
0.0100251
0.00892772
0.00952892
0.00845765
0.0095295
0.00891712
0.00948064
0.00975816
0.0102157
0.00938075
0.0104326
0.00880712
0.00985414
0.00923973
0.00978211
0.00947659
0.010216
0.00922024
0.0102129
0.0092732
0.0100394
0.00960618
0.0102586
0.00939461
0.0104305
0.00834546
0.00958165
0.0089548
0.0095224
0.00900344
0.00989023
0.00601094
0.0082269
9.1047e-07
4.99133e-07
1.17954e-06
-1.09644e-05
3.23937e-06
2.91047e-05
-7.35302e-05
-0.00037454
-0.000528769
0.000584517
-2.29245e-06
2.38902e-06
2.42435e-06
2.01196e-06
2.11053e-06
2.17619e-06
2.17261e-06
1.55574e-06
3.89796e-06
-2.52447e-06
2.82546e-31
0
0
0
0
0
0
0
0
0
8.22785e-42
-2.88078e-35
-8.57281e-34
3.79892e-33
2.22562e-30
6.05948e-30
1.35859e-28
-1.97951e-28
-4.99997e-28
-6.92084e-29
6.33424e-28
1.40084e-27
1.84601e-27
-1.77837e-27
1.69593e-28
2.42133e-26
5.34723e-26
-1.20906e-26
-1.00281e-24
-1.14055e-24
-1.42135e-24
-3.12056e-24
2.22061e-24
3.74785e-24
3.60698e-24
2.05258e-24
1.80967e-25
5.22389e-24
1.30295e-23
-5.5444e-24
-2.18106e-23
-3.62318e-23
-4.41554e-23
-3.89222e-23
-1.6528e-23
5.60722e-24
1.31879e-23
2.12731e-23
1.64195e-23
1.75203e-23
1.4819e-23
1.12513e-23
9.23074e-24
3.32863e-24
2.70638e-24
-1.17377e-25
1.2643e-25
-3.47871e-25
-5.89634e-25
-5.22752e-25
-4.653e-25
-2.9758e-25
-2.15169e-25
-1.38128e-25
-7.48279e-26
-4.73051e-26
-1.39239e-26
-6.20171e-27
-1.48083e-27
3.04621e-27
2.08153e-27
1.96489e-27
1.41359e-27
8.63547e-28
5.33152e-28
3.02381e-28
1.83328e-28
7.11588e-29
4.02786e-29
1.88598e-29
7.24448e-30
3.02545e-30
-8.22641e-31
-1.00616e-30
-6.76444e-31
-5.14377e-31
-3.21733e-31
-2.06316e-31
-1.17012e-31
-6.00204e-32
-3.37872e-32
-1.79385e-32
-7.9795e-33
-3.98645e-33
-2.02752e-33
-9.67408e-34
-4.23751e-34
-1.96076e-34
-1.70694e-35
0
-2.82761e-32
0
-2.43783e-29
2.36774e-28
-2.93241e-60
3.90218e-28
5.34307e-27
-8.47015e-25
-1.24496e-22
3.26249e-21
1.39857e-19
1.61917e-18
9.56856e-18
3.06454e-17
6.56842e-17
1.00868e-16
1.25885e-16
1.41414e-16
1.50174e-16
1.58106e-16
1.70082e-16
1.79574e-16
1.75718e-16
1.51487e-16
1.14387e-16
7.55281e-17
4.38442e-17
2.23041e-17
1.01352e-17
4.13114e-18
1.52132e-18
4.91535e-19
1.28475e-19
2.45986e-20
3.37976e-21
2.35918e-22
4.55103e-24
-4.81223e-25
-1.75413e-26
7.31791e-28
9.86474e-30
-7.17602e-31
1.77555e-32
-3.17867e-34
2.79445e-36
-6.55452e-38
2.87779e-39
-3.91059e-41
-4.82195e-44
6.56682e-45
1.41215e-47
7.19756e-51
-2.90841e-54
1.80352e-06
3.85247e-59
0.00125569
0.0037498
0.00480948
-3.75412e-06
4.98768e-06
-6.54999e-06
-6.5876e-06
2.40233e-05
5.91127e-06
-0.000207422
-0.000524272
-0.000188308
-6.15229e-07
0.00184301
1.27166e-08
2.79935e-06
2.35543e-06
2.12874e-06
2.14226e-06
2.14699e-06
2.49789e-06
2.14619e-06
6.55579e-07
-6.93622e-07
0
0
0
0
0
0
0
0
-7.88651e-44
-3.05456e-36
6.11622e-33
-1.43835e-32
-8.25846e-31
-2.52063e-30
4.12675e-29
1.22615e-27
-1.45808e-28
4.35237e-28
-2.47722e-27
-2.44759e-27
-1.0246e-27
2.47474e-27
8.34125e-27
-1.42989e-26
1.13406e-25
1.33911e-24
1.22732e-24
6.93274e-24
2.77711e-24
2.52562e-25
-7.82286e-24
-8.53879e-24
-1.16327e-23
-2.21618e-23
-8.01673e-24
-1.61358e-23
-2.35386e-23
3.2722e-24
4.28743e-23
4.29793e-23
4.29849e-23
3.46747e-23
-2.64514e-23
-7.08073e-24
-9.51343e-24
-1.42658e-23
-1.14453e-23
-1.22827e-23
-9.06516e-24
-6.13243e-24
1.89144e-25
-4.12691e-24
-1.19547e-24
-2.00599e-24
-3.89048e-25
2.30486e-25
-6.37489e-26
-1.02238e-26
5.77162e-26
5.89978e-26
3.17938e-26
1.82334e-26
1.64376e-26
-1.39581e-26
7.12045e-27
5.44215e-27
-3.31281e-27
2.5478e-27
7.89716e-28
6.07291e-28
3.11599e-28
1.79149e-28
9.90324e-29
3.98568e-29
5.85532e-29
-7.03369e-30
8.40785e-30
5.01429e-30
-1.92207e-31
1.72472e-30
-1.98501e-30
-1.46274e-30
-5.10066e-31
-4.76316e-31
-2.46393e-31
-1.73086e-31
-1.0178e-31
-3.71811e-32
-2.35593e-32
-1.20914e-32
-4.27464e-33
-2.20696e-33
-1.06488e-33
-5.07644e-34
-2.03581e-34
-1.28021e-34
-6.20283e-35
8.33092e-33
5.82835e-25
-5.77248e-23
2.02903e-22
5.93833e-20
9.98825e-19
7.36665e-18
2.75703e-17
6.70156e-17
1.10199e-16
1.42984e-16
1.63629e-16
1.75347e-16
1.83968e-16
1.97383e-16
2.10562e-16
2.12265e-16
1.88585e-16
1.46607e-16
9.9611e-17
5.95992e-17
3.09574e-17
1.45526e-17
6.00796e-18
2.24185e-18
7.521e-19
2.06139e-19
4.19626e-20
6.12233e-21
4.69565e-22
1.31782e-23
-8.35469e-25
-4.2456e-26
1.28281e-27
3.23458e-29
-1.6099e-30
3.36351e-32
-5.45462e-34
4.18913e-36
-1.22593e-37
6.13155e-39
-9.57729e-41
8.04149e-44
1.52849e-44
2.89017e-47
1.49321e-50
-6.72525e-54
1.30333e-58
-2.1028e-06
3.97582e-06
1.39817e-06
-5.45826e-06
1.72644e-05
3.72063e-05
-9.15747e-05
-0.000474715
-0.000858294
0.000174144
1.77738e-06
1.61474e-06
1.1185e-06
1.28659e-06
1.19302e-06
1.15818e-06
1.23092e-06
1.02328e-06
3.47254e-06
-1.41737e-06
0
0
0
0
0
0
0
6.82484e-47
6.4825e-40
2.57732e-33
-2.38208e-35
-2.53693e-30
-2.0316e-29
-1.91639e-28
-1.3273e-29
1.12062e-27
7.39097e-28
-4.85002e-28
-4.21585e-27
-2.11966e-27
1.73911e-27
2.08091e-27
4.97937e-26
1.59725e-25
1.97974e-25
1.29999e-24
2.57859e-24
6.14569e-24
4.61394e-24
-8.70678e-24
3.55066e-24
8.64523e-25
4.29653e-24
1.41249e-27
-4.48144e-23
-6.79117e-24
2.08369e-24
4.43931e-23
2.39148e-23
6.93693e-23
3.18255e-23
-2.0072e-23
3.82805e-24
-9.84003e-24
-2.05247e-23
-1.29799e-23
-1.35029e-23
-8.27841e-24
-6.99764e-24
-2.48367e-24
-4.70773e-24
-1.69953e-24
-1.69875e-24
-1.338e-24
2.4331e-25
-2.15467e-25
-5.10242e-27
1.0866e-25
3.57672e-26
3.56378e-26
6.0886e-27
1.17494e-26
-8.36285e-27
1.19423e-26
6.89201e-27
-1.73164e-27
2.84442e-27
1.64008e-27
8.26015e-28
2.74951e-28
3.27125e-28
1.38414e-28
6.72711e-29
7.78431e-29
1.12846e-29
9.57888e-30
1.03231e-29
4.69512e-30
1.32449e-30
-2.82534e-30
-1.1815e-30
-6.44698e-31
-6.43938e-31
-3.30805e-31
-2.45546e-31
-1.26186e-31
-6.1881e-32
-3.30129e-32
-1.46084e-32
-6.57239e-33
-3.03573e-33
-1.51883e-33
-7.96689e-34
-3.20113e-34
-1.8484e-34
-3.559e-35
-6.55609e-34
8.27493e-21
2.86856e-19
2.90028e-18
1.52648e-17
4.53523e-17
8.91561e-17
1.2871e-16
1.54942e-16
1.71118e-16
1.7935e-16
1.90008e-16
2.04334e-16
2.13595e-16
2.03539e-16
1.69154e-16
1.22591e-16
7.84823e-17
4.34371e-17
2.1549e-17
9.40473e-18
3.7093e-18
1.33779e-18
4.06931e-19
9.57448e-20
1.67195e-20
1.80634e-21
1.01046e-22
-5.04828e-25
-2.55833e-25
-1.83299e-27
3.62055e-28
-5.29238e-30
-9.42382e-32
4.22631e-33
-1.06218e-34
1.18596e-36
-7.55884e-39
-8.04289e-41
9.89618e-42
-1.31099e-43
-8.80307e-46
-5.37477e-49
-4.31265e-52
3.95359e-56
-1.02141e-59
-1.25931e-06
4.40951e-06
-6.83422e-06
-1.06195e-06
2.75655e-05
-4.42555e-06
-0.000258203
-0.000691066
-0.000749982
0.00251799
1.83239e-06
1.02462e-06
1.23016e-06
1.19308e-06
1.15769e-06
1.18636e-06
1.54041e-06
1.11884e-06
9.74468e-07
-2.23535e-07
0
-5.39627e-27
-2.30338e-22
-3.20333e-24
2.47959e-26
-1.70693e-06
0
0
0
0
0
0
0
0
0
0
0
0
0
0
0
0
0
0
0
0
0
0
0
0
0
0
0
0
0
0
0
0
0
0
0
0
0
0
0
0
0
0
0
0
0
0
0
0
0
0
0
0
0
0
0
0
0
0
0
0
0
0
0
0
0
0
0
0
0
0
0
0
0
0
0
0
0
0
0
0
0
0
0
0
0
0
0
0
0
0
0
0
0
0
0
0
0
0
0
0
0
0
0
0
0
0
0
0
0
0
0
0
0
0
0
0
0
0
0
0
0
0
0
0
0
0
0
0
0
0
0
0
0
0
0
0
0
0
0
0
0
0
0
0
0
0
0
0
0
0
0
0
0
0
0
0
0
0
0
0
0
0
0
0
0
0
0
0
0
0
0
0
0
0
0
0
0
0
0
0
0
0
0
0
0
0
0
0
0
0
0
0
0
0
0
0
-6.07667e-27
4.17845e-28
7.48153e-28
6.60627e-25
0
0
0
0
0
0
-1.51329e-41
-6.30332e-33
2.01534e-31
-6.39333e-31
1.44656e-28
-1.38032e-27
1.3219e-26
-8.66376e-27
-6.46022e-27
-2.40993e-27
8.32287e-27
-2.54196e-26
-6.98286e-26
-1.4658e-25
-4.48391e-25
-1.3341e-24
6.28561e-24
1.31989e-23
1.96437e-23
-3.0931e-23
-5.36802e-23
-4.26407e-23
-2.04395e-22
-6.09424e-23
-8.18571e-23
-9.55977e-23
-1.62556e-22
-6.07273e-22
-8.94614e-22
-1.17245e-21
-6.47518e-22
1.11406e-22
5.2489e-22
1.10484e-21
9.62167e-22
9.50954e-22
8.19726e-22
4.09179e-22
4.06166e-22
1.42755e-22
8.21348e-23
-3.44643e-23
-1.24177e-22
-1.1003e-22
-9.55254e-23
-7.7709e-23
-5.80804e-23
-3.53159e-23
-2.4724e-23
-1.4127e-23
-2.68061e-24
-2.96959e-25
3.86929e-25
1.15245e-24
1.05256e-24
9.06508e-25
6.83791e-25
4.85733e-25
2.20502e-25
1.47716e-25
7.89951e-26
2.74899e-26
7.66644e-27
2.58869e-27
3.59592e-29
-1.41855e-27
-2.03528e-27
-1.43304e-27
-1.01334e-27
-6.24192e-28
-3.49779e-28
-1.90594e-28
-1.07999e-28
-5.75305e-29
-2.46845e-29
-1.34769e-29
-5.86405e-30
-2.98731e-30
-1.73831e-30
-3.34444e-31
-1.68332e-31
-3.80563e-32
4.20536e-32
1.8308e-32
1.98665e-32
9.14146e-33
5.9145e-33
5.06158e-33
4.24898e-34
3.23355e-31
1.01547e-20
0
5.26991e-31
0
0
0
0
0
0
0
0
0
0
0
0
0
0
0
0
0
0
0
0
0
0
0
0
0
0
0
0
0
0
0
0
0
0
0
0
0
0
0
0
0
0
0
0
0
0
0
0
0
0
0
0
0
0
0
0
0
0
0
0
0
0
0
0
0
0
0
0
0
0
0
0
0
0
0
0
0
0
0
0
0
0
0
0
0
0
0
0
1.36133e-118
1.68825e-118
8.63504e-119
1.08456e-118
5.36094e-119
6.91362e-119
1.72697e-118
2.15988e-118
2.97162e-116
3.69799e-116
4.12002e-116
2.38506e-116
1.44117e-113
1.74506e-113
2.18525e-113
2.59943e-113
1.42461e-113
1.67383e-113
4.27977e-113
3.46713e-113
1.00848e-112
1.16439e-112
8.40007e-113
9.51806e-113
4.10739e-112
4.65149e-112
2.69174e-112
2.87995e-112
1.27743e-111
1.00035e-111
2.55405e-109
3.1499e-109
8.93024e-109
-3.2816e-108
1.15136e-108
-1.6024e-108
9.18863e-108
5.56291e-109
5.32165e-105
6.57983e-105
8.67542e-104
-3.84861e-103
2.0956e-103
-1.90014e-103
8.74636e-101
1.0573e-100
7.89553e-101
9.40003e-101
5.42164e-101
6.03268e-101
2.77656e-99
3.34841e-99
3.4169e-99
4.07157e-99
3.42362e-99
-1.28456e-99
2.27605e-98
2.62466e-98
-1.31585e-96
-8.0593e-97
-1.41396e-94
-1.36359e-94
-1.19522e-94
-1.16709e-96
-7.58052e-94
-3.77706e-94
-6.1469e-94
2.45883e-94
-5.76617e-92
1.82881e-92
-6.10798e-90
-7.36171e-90
1.66729e-88
9.57864e-89
6.14272e-88
-5.31425e-88
3.56329e-86
2.64716e-86
7.57065e-86
6.30113e-86
5.7536e-86
2.56911e-86
1.67427e-85
-5.77252e-86
3.33069e-85
2.22509e-85
2.51793e-85
1.27521e-85
1.36101e-84
1.15001e-84
1.25203e-84
1.14037e-84
8.43094e-85
7.94626e-85
6.66939e-85
2.33171e-86
2.00008e-84
1.26121e-84
4.10023e-84
2.56599e-84
8.26054e-84
7.01299e-84
3.17622e-83
1.79889e-83
2.19171e-83
1.25932e-83
1.63621e-83
8.59997e-84
5.68932e-83
4.92897e-83
4.59878e-83
3.21127e-83
4.24905e-83
3.10323e-84
5.61979e-82
2.04355e-82
9.19326e-82
4.11457e-82
1.08328e-81
-8.28563e-82
9.92701e-82
-5.78979e-82
1.58979e-81
4.94742e-82
4.39327e-81
-5.81841e-81
3.71722e-80
2.76446e-80
2.69442e-80
1.20292e-80
2.01666e-80
6.99035e-81
1.58907e-80
4.15214e-81
6.38848e-80
4.93906e-80
5.28008e-80
3.95109e-80
3.83228e-80
2.7123e-80
7.33716e-80
4.75428e-80
9.38289e-80
7.31201e-80
6.86134e-80
3.81284e-80
1.07511e-79
5.94842e-82
1.76657e-79
1.21732e-79
1.60647e-79
6.18873e-81
4.32819e-79
4.16462e-79
2.92737e-79
2.48284e-79
1.92478e-79
1.59778e-79
1.29465e-79
9.59376e-80
1.12163e-79
8.90683e-80
1.44593e-79
1.2403e-79
1.07758e-79
6.61062e-80
3.73031e-79
1.92763e-79
4.96556e-79
2.93129e-79
3.68932e-79
1.67047e-79
4.81966e-79
-1.5051e-80
7.65074e-79
4.71292e-79
7.02982e-79
-7.26693e-80
1.19235e-78
8.93277e-79
8.45049e-79
5.57603e-79
5.92613e-79
3.5255e-79
4.9606e-79
2.45761e-79
3.63226e-79
1.51875e-79
2.80999e-79
8.6541e-80
5.84134e-79
4.40689e-79
4.28454e-79
1.91036e-79
4.33013e-79
3.0554e-79
3.01241e-79
1.8313e-79
5.37569e-79
4.10729e-79
4.04262e-79
3.1844e-79
2.74406e-79
2.23561e-79
2.86099e-79
2.24922e-79
2.1452e-79
1.65733e-79
1.66628e-79
4.32028e-80
1.99854e-79
1.40114e-79
2.04038e-79
1.87108e-79
1.33973e-79
1.21029e-79
1.1796e-79
1.15646e-79
7.98742e-80
7.18302e-80
7.1741e-80
7.00645e-80
4.61029e-80
4.25222e-80
7.1175e-80
6.28452e-80
5.4874e-80
4.70253e-80
3.77353e-80
3.15143e-80
4.4492e-80
3.27899e-80
4.62894e-80
3.78806e-80
3.16198e-80
2.39473e-80
3.10453e-80
8.96541e-81
3.19729e-80
2.0742e-80
2.79207e-80
1.10943e-80
1.99465e-80
8.55034e-81
2.05118e-80
9.60619e-81
1.45827e-80
6.81015e-81
1.0302e-80
4.96764e-81
1.07561e-80
6.47231e-81
1.35768e-80
1.14408e-80
9.35705e-81
7.47743e-81
1.30683e-80
9.63275e-81
1.20468e-80
1.00721e-80
7.91353e-81
6.77809e-81
5.79627e-81
4.14135e-81
4.6622e-81
4.101e-81
3.04796e-81
2.48836e-81
2.85208e-81
2.20158e-81
2.22741e-81
1.84363e-81
1.46085e-81
1.28697e-81
9.96981e-82
9.16863e-82
6.97513e-82
6.36684e-82
4.72315e-82
3.5047e-82
5.61245e-82
5.08963e-82
-1.58507e-81
-2.35366e-82
6.06191e-78
-2.73806e-79
3.05165e-74
-1.1678e-74
-7.59784e-72
-1.08398e-71
-2.94014e-72
-1.51983e-71
1.04106e-72
-1.21325e-71
-4.8675e-71
-6.4427e-71
-1.08775e-69
-6.44471e-70
9.8905e-67
-5.9388e-68
-4.22561e-65
-1.90905e-64
-6.68143e-63
-6.24883e-63
-3.57902e-61
-4.17344e-61
-2.8459e-61
-9.14753e-60
-2.8991e-61
-2.6794e-22
-1.81167e-06
-6.1072e-07
-1.4324e-06
-6.92186e-23
-1.54106e-22
3.25533e-26
-1.26356e-26
9.97082e-26
2.9902e-22
-4.52439e-22
1.46622e-21
-4.10874e-24
-1.26113e-23
3.42413e-19
3.451e-18
1.80819e-17
5.36838e-17
1.05524e-16
1.52264e-16
1.8327e-16
2.02751e-16
2.11898e-16
2.24891e-16
2.41469e-16
2.52444e-16
2.40607e-16
1.99595e-16
1.44603e-16
9.26463e-17
5.13352e-17
2.54399e-17
1.11023e-17
4.3745e-18
1.574e-18
4.787e-19
1.13166e-19
1.97689e-20
2.14776e-21
1.21013e-22
-4.64567e-25
-3.03112e-25
-2.39571e-27
4.26592e-28
-5.89451e-30
-1.18781e-31
5.02625e-33
-1.24977e-34
1.40168e-36
-9.00393e-39
-7.94941e-41
1.11082e-41
-1.49326e-43
-9.85433e-46
-5.90605e-49
-4.67353e-52
4.21084e-56
1.43664e-58
3.58499e-58
-2.31451e-59
-1.39301e-07
-2.62144e-07
0.00372382
-9.15825e-06
-3.59244e-06
-5.56479e-06
2.31004e-06
1.14682e-06
6.08531e-06
7.09561e-06
3.82973e-06
9.21553e-06
-6.54402e-06
4.47177e-06
-1.03978e-05
-1.13062e-06
-5.62308e-06
-3.071e-07
1.44644e-05
1.70034e-05
2.69406e-05
4.13072e-05
1.49627e-05
5.35781e-05
-3.65836e-05
4.98683e-05
-0.000134577
1.68485e-06
-0.000259554
-8.46065e-05
-0.000358545
-0.000198535
-0.000372447
-0.000307238
-0.000201245
-0.000353695
0.000338424
-0.000402708
0.00669919
0.0182394
0.0158654
0.0191512
0.0150649
0.0167342
0.0156427
0.0167573
0.0155117
0.0170875
0.0161351
0.0173311
0.0161886
0.0176621
0.0155204
0.0172229
0.0155433
0.0169185
0.0161975
0.0173176
0.0161025
0.0176775
0.0158457
0.0174086
0.0161239
0.0174204
0.0163996
0.0178074
0.0154484
0.0173961
0.014943
0.0164967
0.0166978
0.0175295
0.0137135
0.0112008
0.0167929
0
2.94819e-06
3.04943e-08
-9.09091e-06
1.57423e-05
2.79374e-06
-0.000176975
-0.000377028
2.52955e-05
0.00217438
-1.43594e-06
-2.61667e-06
8.17513e-07
7.37521e-07
-8.05037e-07
-1.0668e-06
-6.91344e-07
-7.46428e-07
-8.60927e-07
-7.83293e-07
-6.52212e-07
-1.72484e-06
1.19639e-06
-7.05032e-07
0
0
0
4.99479e-06
-1.58424e-06
5.39354e-06
0.0117951
0.0165976
0.00758252
1.20128e-06
5.71925e-07
0.00136427
-0.000391817
2.77484e-07
-2.77835e-07
5.79475e-31
0
0
-3.65794e-29
1.26544e-24
0
-2.61448e-29
0
0
0
0
0
3.3795e-45
6.32857e-36
8.86151e-32
3.05474e-32
-1.41447e-28
-8.48822e-28
1.16449e-26
1.17617e-26
1.2973e-27
-1.18372e-26
9.7807e-27
-5.29317e-27
-3.98071e-26
-1.11419e-25
-1.7504e-25
5.27825e-25
3.0588e-24
1.64902e-23
4.24079e-23
1.00927e-23
4.4995e-23
1.40456e-23
-8.71114e-23
-1.34973e-22
-6.56304e-23
-9.18208e-23
-2.75547e-22
-7.0892e-22
-5.43782e-22
-9.37752e-22
-9.96347e-22
-3.93163e-22
3.28659e-22
7.47059e-22
1.09173e-21
1.03087e-21
7.49699e-22
3.62877e-22
4.03318e-22
1.36625e-22
5.15299e-23
-3.84539e-23
-1.09729e-22
-1.21116e-22
-1.07812e-22
-8.50106e-23
-7.14625e-23
-4.00055e-23
-3.04888e-23
-1.61066e-23
-4.82975e-24
-6.26946e-25
1.94765e-25
1.29071e-24
1.21391e-24
1.02725e-24
8.03633e-25
5.8359e-25
3.33559e-25
1.83997e-25
1.12977e-25
3.65468e-26
2.04513e-26
5.16169e-27
1.3807e-27
-1.3764e-27
-2.45467e-27
-1.65273e-27
-1.34169e-27
-8.06e-28
-4.54976e-28
-2.6111e-28
-1.45281e-28
-7.58794e-29
-3.45761e-29
-1.87567e-29
-8.19932e-30
-4.26244e-30
-2.1533e-30
-7.38992e-31
-2.60475e-31
-2.15349e-32
5.71819e-32
2.72024e-32
2.74566e-32
1.31488e-32
8.93097e-33
5.61026e-33
2.89186e-33
-3.00585e-32
0
0
0
0
2.82202e-05
7.18197e-20
1.18745e-18
8.72433e-18
3.27127e-17
7.92952e-17
1.30475e-16
1.69159e-16
1.93689e-16
2.07709e-16
2.17506e-16
2.33474e-16
2.48897e-16
2.50908e-16
2.22571e-16
1.73061e-16
1.17417e-16
7.04379e-17
3.65894e-17
1.71738e-17
7.07642e-18
2.64309e-18
8.86895e-19
2.42926e-19
4.9538e-20
7.22321e-21
5.59136e-22
1.61746e-23
-9.70572e-25
-5.1083e-26
1.46733e-27
3.97094e-29
-1.89354e-30
3.80335e-32
-6.03712e-34
4.29759e-36
-1.33171e-37
6.97012e-39
-1.09512e-40
1.10593e-43
1.72616e-44
3.23139e-47
1.63017e-50
-7.72545e-54
0
3.57605e-07
0.00293739
0.00532098
-1.2798e-07
0
4.78527e-06
-4.04123e-06
3.60567e-06
3.05671e-05
-6.32561e-05
-0.00030085
-0.000303784
-0.000103533
0.000806858
-6.18429e-07
-6.89914e-07
-1.00732e-06
-8.37879e-07
-5.96177e-07
-8.32896e-07
-8.17025e-07
-8.20514e-07
-8.6961e-07
-4.14975e-07
1.91837e-07
-2.35876e-07
-5.2762e-07
0
4.90475e-30
0
3.65637e-06
-5.68335e-07
-3.78189e-07
-7.27834e-07
-6.12886e-07
-0.000486979
-0.000282811
-3.88137e-05
4.85088e-05
1.63303e-05
-5.02944e-06
8.15301e-56
-8.61306e-52
-1.2757e-48
-2.05871e-45
-3.6146e-43
2.24427e-41
1.52694e-40
-3.76608e-38
3.41652e-36
-2.82213e-34
1.28998e-32
-3.82287e-31
-8.10685e-30
8.7417e-28
-9.1495e-27
-6.0738e-25
1.11395e-24
2.50082e-22
4.03585e-21
3.33718e-20
1.83935e-19
7.24553e-19
2.28681e-18
6.30059e-18
1.57574e-17
3.49814e-17
6.94231e-17
1.21053e-16
1.85056e-16
2.45323e-16
2.86602e-16
2.93501e-16
2.76181e-16
2.57099e-16
2.44245e-16
2.30768e-16
2.06229e-16
1.66282e-16
1.07644e-16
4.84488e-17
5.28403e-31
1.20961e-32
5.04632e-33
8.38751e-33
1.39032e-32
3.03044e-32
5.08242e-32
1.07907e-31
8.21264e-32
5.27169e-32
2.12768e-31
-7.38124e-31
-8.5988e-31
-1.25875e-30
-3.85553e-30
-5.68099e-30
-2.52809e-29
-4.93296e-29
-7.81916e-29
-1.94234e-28
-3.6959e-28
-5.58767e-28
-8.4167e-28
-1.43558e-27
-1.78327e-27
-6.65203e-28
5.993e-28
-1.05084e-26
-8.68547e-27
8.24738e-27
4.90848e-27
-1.18793e-26
5.30152e-26
6.94113e-26
-4.9743e-26
1.61104e-25
8.50909e-25
1.85804e-25
1.55389e-24
3.24457e-24
2.69445e-24
1.02205e-24
6.41688e-24
2.10387e-23
2.25845e-23
4.08542e-23
4.12724e-23
8.46298e-23
4.23217e-23
-1.62518e-22
-1.46952e-22
-3.90811e-22
-5.52241e-22
-7.11436e-22
-4.77519e-22
-1.16775e-21
-1.52688e-21
-9.40239e-22
-1.33568e-21
8.93761e-23
1.298e-21
-1.06641e-30
-3.05677e-33
2.30808e-21
5.22874e-22
7.53406e-22
9.48823e-22
2.81986e-22
1.10136e-22
1.95533e-22
3.30156e-22
1.7554e-22
-1.05864e-22
8.29519e-23
-5.82223e-23
-4.43494e-24
2.29256e-24
6.76292e-25
1.94236e-25
1.39368e-25
5.32965e-26
5.21718e-26
-3.67581e-26
4.42908e-26
2.04644e-26
-1.84414e-26
-5.83578e-27
-8.52729e-28
-1.19549e-07
5.40974e-07
-1.68593e-06
-6.88772e-07
-6.30584e-07
-6.27772e-07
-6.17322e-07
0.00166987
-0.000570107
-0.000404834
-0.000149776
2.6511e-05
3.45072e-05
-1.72358e-06
-1.70057e-53
3.36377e-50
6.67758e-47
3.88467e-44
7.11476e-43
-2.52059e-40
1.50228e-38
-2.20589e-37
3.83228e-36
-9.4652e-34
6.56935e-32
-3.93488e-30
1.06889e-28
2.32124e-27
-1.1472e-25
-1.56509e-24
3.93594e-23
1.07447e-21
1.26364e-20
8.20805e-20
3.77449e-19
1.33571e-18
3.86971e-18
1.00625e-17
2.38028e-17
5.00526e-17
9.3869e-17
1.51699e-16
2.16839e-16
2.69035e-16
2.93137e-16
2.85954e-16
2.65608e-16
2.49732e-16
2.3875e-16
2.20109e-16
1.881e-16
1.378e-16
7.60942e-17
0
2.39765e-20
1.59627e-32
1.51671e-33
5.93831e-33
1.25427e-32
2.02006e-32
4.78831e-32
7.18625e-32
1.55021e-31
1.60908e-31
1.07142e-31
-8.52149e-32
-5.71823e-31
-7.70609e-31
-1.26623e-30
-5.01251e-30
-8.50443e-30
-3.1497e-29
-6.1292e-29
-1.01604e-28
-2.49914e-28
-4.91866e-28
-9.60742e-28
-9.39317e-28
-1.74691e-27
-2.11466e-27
5.13129e-29
-5.31596e-27
-2.80078e-27
-1.06092e-26
8.9679e-27
-3.35749e-27
5.89735e-26
2.02349e-26
2.55521e-27
-1.14665e-25
5.11465e-25
1.25646e-24
2.13725e-25
2.08464e-24
2.08595e-24
6.49788e-24
6.38255e-24
2.48964e-23
1.54786e-23
3.76336e-23
3.87719e-23
6.39329e-23
1.46028e-22
1.91741e-23
-2.85742e-22
-5.05145e-22
-4.33163e-22
-9.4153e-22
-8.42468e-22
-8.33066e-22
-1.03839e-21
-1.59467e-21
-1.48098e-21
-6.177e-22
1.02664e-22
1.42154e-21
1.34616e-21
1.39856e-21
2.96011e-22
-4.32029e-23
-1.33746e-22
-3.71986e-22
4.06372e-22
1.58955e-22
2.89407e-23
5.9239e-23
-1.25134e-23
-2.75925e-23
-1.21158e-23
2.22666e-24
2.08065e-25
1.30235e-25
1.01206e-25
6.20999e-26
7.08527e-27
1.35239e-42
-3.59481e-26
1.97043e-26
1.72089e-26
-3.47545e-26
-2.90856e-27
-1.57185e-28
7.7913e-31
2.03482e-31
-3.53214e-40
4.23411e-45
0
0
0
0
0
1.43101e-17
2.13434e-18
1.49406e-19
6.5615e-19
6.07187e-18
2.78697e-17
3.10327e-06
-3.84152e-07
-4.07553e-06
-6.92217e-07
-5.40643e-07
-5.9089e-07
-6.07852e-07
0
0
0
0
0
0
0
0
0
0
0
0
0
0
0
0
0
0
0
0
0
0
0
0
0
0
0
0
0
0
0
0
0
0
0
0
0
0
0
0
0
0
0
0
0
0
0
0
0
0
0
0
0
0
0
0
0
0
0
0
0
0
0
0
0
0
0
0
0
0
0
0
0
0
0
0
0
0
0
0
0
0
0
0
0
0
0
0
0
0
0
0
0
0
0
0
0
0
0
0
0
0
0
0
0
0
0
0
0
0
0
0
0
0
0
0
0
0
0
0
0
0
0
0
0
0
0
0
0
0
0
0
0
0
0
0
0
0
0
0
0
0
0
0
0
0
0
0
0
0
0
0
0
0
0
0
0
0
0
0
0
0
0
0
0
0
0
0
0
0
0
0
0
0
0
0
0
0
0
0
0
0
0
0
0
0
0
0
0
0
7.70207e-28
1.3982e-24
1.70349e-17
1.85443e-06
0
0
0
0
0
0
0
0
0
2.15856e-25
-1.22976e-21
-5.0308e-34
3.28614e-30
0
0
-2.99077e-29
-2.87915e-07
-7.77654e-27
-3.68015e-26
1.96615e-25
-1.26875e-26
7.81292e-25
1.53741e-24
-1.56413e-24
-8.33399e-25
8.87758e-36
-1.23113e-33
-5.32844e-25
-1.70129e-24
-2.92015e-24
-2.61009e-24
-1.62657e-24
3.50524e-24
3.8592e-23
8.28436e-22
-4.59252e-22
1.95501e-21
4.12933e-22
-5.84278e-22
-3.65457e-23
-2.8174e-21
-5.95132e-21
-1.71424e-21
4.51571e-21
2.99156e-21
-7.24233e-21
-3.03287e-20
2.5898e-29
2.12274e-28
1.25633e-20
2.49113e-20
1.74979e-20
2.28021e-20
6.90087e-21
-1.77064e-21
-3.38367e-21
-1.03103e-20
-1.17051e-20
-1.14277e-20
-1.06761e-20
-1.06418e-20
-7.01904e-21
-2.94528e-21
-2.31623e-21
-1.0683e-21
-1.69029e-22
2.05093e-22
5.4456e-22
4.03815e-22
3.71147e-22
2.59663e-22
1.70247e-22
9.8884e-23
6.49897e-23
3.22144e-23
5.17784e-24
2.68141e-25
-1.91758e-24
-3.0385e-24
-2.055e-24
-1.70164e-24
-1.10909e-24
-6.78764e-25
-3.56979e-25
-2.07635e-25
-1.27587e-25
-5.76644e-26
-2.65765e-26
-8.57179e-27
-4.76661e-27
-2.24973e-27
3.21895e-28
2.75531e-28
1.41629e-28
3.1854e-28
1.56908e-28
1.33412e-28
8.1734e-29
3.90416e-29
2.28414e-29
1.18104e-29
5.97864e-30
3.25392e-30
1.69907e-30
7.67369e-31
3.77763e-31
1.97369e-31
6.20705e-32
2.96966e-31
0
0
0
0
0
0
0
0
0
0
0
0
0
0
0
0
0
0
0
0
0
0
0
0
0
0
0
0
0
0
0
0
0
0
0
0
0
0
0
0
0
0
0
0
0
0
0
0
0
0
0
0
0
0
0
0
0
0
0
0
0
0
0
0
0
0
0
0
0
0
0
0
0
0
0
0
0
0
0
0
0
0
0
0
0
0
0
0
9.17438e-117
1.13826e-116
5.79016e-117
7.33438e-117
4.78001e-116
6.04444e-116
3.07807e-116
3.81964e-116
2.35231e-114
-9.72021e-114
9.35176e-114
-2.96194e-113
1.17786e-111
1.42638e-111
1.55167e-111
-1.99125e-111
1.46811e-111
-6.42745e-112
1.27284e-110
1.42736e-110
9.43027e-111
7.73153e-111
4.56969e-111
6.34378e-111
3.42098e-110
3.73922e-110
3.74476e-110
-4.46254e-110
-5.29365e-109
-5.34975e-109
1.06123e-107
-1.24578e-107
1.26918e-105
1.41725e-105
9.08561e-106
5.64555e-106
8.03934e-106
1.67917e-106
9.29858e-103
-1.56992e-105
9.30142e-100
1.11871e-99
6.31861e-100
5.78208e-100
6.44687e-99
7.6985e-99
7.79709e-99
-1.07272e-98
7.68735e-99
-6.23329e-99
3.2686e-97
3.9018e-97
3.22941e-97
-1.49575e-97
4.16773e-96
4.39768e-96
2.83638e-96
2.89938e-96
-5.23126e-95
3.46628e-95
-1.51298e-92
4.6225e-93
-6.60656e-92
4.24938e-92
-2.35072e-91
-1.30359e-91
-4.82355e-91
1.28231e-90
-7.58953e-90
1.01666e-90
-5.93302e-88