/*--------------------------------*- C++ -*----------------------------------*\
  =========                 |
  \\      /  F ield         | OpenFOAM: The Open Source CFD Toolbox
   \\    /   O peration     | Website:  https://openfoam.org
    \\  /    A nd           | Version:  7
     \\/     M anipulation  |
\*---------------------------------------------------------------------------*/
FoamFile
{
    version     2.0;
    format      ascii;
    class       volScalarField;
    location    "0.78";
    object      T;
}
// * * * * * * * * * * * * * * * * * * * * * * * * * * * * * * * * * * * * * //

dimensions      [0 0 0 1 0 0 0];

internalField   nonuniform List<scalar> 
46572
(
0
0
0
0
0
0
0
0
0
0
0
0
0
0
0
0
0
0
0
0
0
0
0
0
0
0
0
0
0
0
0
0
0
0
0
0
0
0
0
0
0
0
0
0
0
0
0
0
0
0
0
0
0
0
0
0
0
0
0
0
0
0
0
0
0
0
0
0
0
0
0
0
0
0
0
0
0
0
0
0
0
0
0
0
0
0
0
0
0
0
0
0
0
0
0
0
0
0
0
0
0
0
0
0
0
0
0
0
0
0
0
0
0
0
0
0
0
0
0
0
0
0
0
0
0
0
0
0
0
0
0
0
0
0
0
0
0
0
0
0
0
0
0
0
0
0
0
0
0
0
0
0
0
0
0
0
0
0
0
0
0
0
0
0
0
0
0
0
0
0
0
0
0
0
0
0
0
0
0
0
0
0
0
0
0
0
0
0
0
0
0
0
0
0
0
0
0
0
0
0
0
0
0
0
0
0
0
0
0
0
0
0
0
0
0
0
0
0
0
0
0
0
0
0
0
0
0
0
0
0
0
0
0
0
0
0
0
0
0
0
0
0
0
0
0
0
0
0
0
0
0
0
0
4.52056e-143
-1.63009e-154
-1.20207e-137
5.71145e-141
-5.21962e-134
-6.48043e-134
-1.56371e-132
7.17796e-132
-3.89545e-129
6.37869e-131
-1.07395e-124
1.96844e-127
-2.62448e-121
1.80349e-122
-4.93154e-120
1.16899e-119
-2.42742e-119
-7.29638e-120
-2.45045e-119
-1.34004e-119
-1.33669e-117
3.79416e-117
-1.08936e-115
-1.10532e-115
-6.80519e-115
-7.6421e-115
-2.23512e-113
-8.55344e-114
1.47977e-113
-1.42502e-112
7.06169e-112
-3.15548e-111
1.89967e-110
-4.8345e-110
-9.95298e-109
-1.59331e-108
-1.03256e-108
-1.54873e-108
-5.54383e-109
-1.25321e-108
7.8141e-109
-2.14465e-108
-6.62723e-107
-1.01109e-106
-4.13716e-107
-6.56059e-107
-4.63331e-107
4.53556e-107
-1.59299e-105
-1.86028e-105
-2.10598e-105
-2.52733e-105
-2.05993e-105
-2.2941e-105
-1.76149e-105
-5.93874e-106
-3.00185e-104
-3.44394e-104
-7.40104e-104
-8.5375e-104
-4.59273e-104
-6.54625e-104
-6.4329e-105
-7.35661e-104
-6.06886e-103
2.28987e-103
-9.22535e-103
1.75732e-102
-8.35332e-103
6.43312e-103
-1.19193e-102
2.81972e-102
-5.24187e-102
9.05243e-102
-2.24032e-101
-1.09617e-101
-8.64221e-102
-1.18573e-100
-2.7897e-100
-1.45079e-99
-5.90557e-100
-2.03419e-99
-2.50368e-100
-1.46519e-99
4.495e-101
-1.32959e-99
-5.08982e-99
-1.34034e-98
-2.16741e-98
-9.35159e-99
-8.22958e-98
-1.16804e-98
-9.21094e-98
4.83906e-98
-6.17461e-97
-5.79424e-97
-4.15975e-97
-3.51728e-97
-3.20043e-97
-9.74695e-98
-4.5946e-97
-2.6028e-97
-3.72694e-97
-4.90607e-98
-4.16391e-97
3.26007e-97
-1.76098e-96
-1.15308e-96
-1.22832e-96
-4.48182e-97
-1.47739e-96
1.46373e-96
-2.3789e-96
9.99491e-97
-2.80473e-96
1.44561e-96
-4.29367e-96
7.25984e-96
-8.75849e-96
1.24088e-95
-1.97956e-95
-3.01346e-96
-4.04004e-95
7.44999e-95
-5.38451e-95
3.49736e-95
-5.99463e-95
5.73641e-95
-4.26925e-95
-3.9974e-95
4.19214e-96
-1.76601e-94
1.82741e-94
-3.63815e-94
7.55113e-94
-2.46096e-94
2.06397e-93
-8.54307e-94
1.99869e-93
-8.02299e-94
1.91659e-93
-1.12251e-93
4.01307e-93
-2.07144e-93
5.99406e-93
2.35998e-93
4.84742e-93
2.69073e-93
-1.15442e-94
1.35434e-92
-5.14674e-93
2.00071e-92
-1.30086e-92
3.77753e-92
-2.69665e-92
6.1026e-92
-4.71983e-92
1.10427e-91
-1.03139e-91
1.5559e-91
-4.53798e-91
6.95657e-91
-5.23417e-91
6.7694e-91
-5.78862e-91
7.1476e-91
-5.90843e-91
6.86931e-91
-1.34741e-90
1.30055e-90
-2.00482e-90
3.24186e-91
-1.59725e-90
7.60132e-91
-2.22772e-90
3.15755e-90
-3.70169e-90
4.18593e-90
-4.77027e-90
3.95709e-90
-5.95369e-90
7.43464e-90
-9.40332e-90
1.49835e-89
-1.16186e-89
1.14608e-89
-1.92634e-89
1.95745e-89
-1.8782e-89
1.20203e-89
-1.99555e-89
2.0971e-90
-1.79815e-89
5.24151e-90
-1.81526e-89
1.24186e-89
-5.63572e-89
3.39572e-90
-4.48629e-89
2.84658e-89
-7.60389e-89
1.29552e-88
-1.30447e-88
1.33999e-88
-1.52521e-88
7.77213e-89
-1.55128e-88
9.37772e-89
-1.72389e-88
1.6034e-88
-1.92587e-88
1.35171e-88
-2.18779e-88
1.87839e-88
-2.18285e-88
8.95047e-89
-2.00282e-88
3.00564e-89
-1.72059e-88
3.84673e-89
-1.51879e-88
1.96909e-89
-1.41118e-88
2.0512e-89
-1.91319e-88
2.18678e-88
-2.81767e-88
6.87434e-89
-2.95601e-88
1.97881e-88
-2.73971e-88
1.72548e-88
-4.6804e-88
2.99911e-88
-6.23339e-88
-3.01582e-89
-4.98615e-88
1.03788e-88
-5.35267e-88
3.73117e-88
-5.64387e-88
2.08878e-88
-7.40911e-88
6.12394e-88
-1.13332e-87
1.05615e-87
-1.44887e-87
1.74783e-87
-1.4297e-87
1.37502e-87
-1.57209e-87
1.76517e-87
-1.61222e-87
1.6434e-87
-2.16002e-87
1.6882e-87
-1.97389e-87
1.0967e-87
-3.22334e-87
1.95928e-87
-4.28915e-87
2.13288e-90
-3.44443e-87
8.49601e-88
-3.62106e-87
2.62859e-87
-4.37451e-87
2.55646e-87
-4.41611e-87
1.33393e-87
-4.12036e-87
1.9157e-87
-4.20026e-87
1.73594e-87
-5.1705e-87
-4.00505e-88
-4.16275e-87
-3.26209e-89
-3.76468e-87
2.01852e-88
-4.36467e-87
-2.87742e-88
-3.5016e-87
-2.59508e-88
-2.94101e-87
3.16743e-88
-3.85214e-87
-1.08171e-87
-2.80709e-87
-3.76665e-88
-2.47742e-87
6.10217e-88
-2.37306e-87
5.62972e-88
-2.12983e-87
2.27744e-88
-1.75526e-87
2.75877e-88
-1.61197e-87
2.20665e-88
-1.69669e-87
-5.38968e-88
-1.40259e-87
1.84306e-89
-1.23148e-87
2.01788e-89
-1.00017e-87
1.23399e-89
-6.5523e-88
-2.11367e-89
-3.82346e-86
-9.54938e-87
-3.53269e-85
3.43259e-85
-5.96727e-84
5.34323e-84
-1.44666e-82
2.76351e-83
1.93527e-80
3.59795e-82
1.16186e-79
1.68688e-80
6.27494e-78
-2.03754e-77
-1.67786e-76
-3.6029e-76
1.22743e-75
-1.60058e-75
-6.84004e-74
-3.16889e-74
4.35309e-73
-4.2923e-73
3.98884e-72
1.12961e-72
2.81575e-70
-1.30651e-70
-1.75413e-69
-4.1321e-69
-6.05794e-68
-7.45046e-68
-1.17187e-66
-1.72749e-67
-7.93466e-67
-4.68774e-06
-1.69102e-06
-7.67963e-08
-1.99411e-09
1.55057e-10
5.77993e-12
5.33512e-15
-1.37413e-15
-8.57234e-18
-2.99984e-20
-4.60462e-23
1.07151e-23
-3.144e-25
1.73998e-27
2.5465e-29
-1.53432e-31
-4.36497e-34
3.48304e-36
8.51129e-39
-2.22324e-40
1.46648e-42
-5.35133e-45
7.59347e-48
5.79399e-50
-8.68407e-52
8.69668e-54
-7.39498e-56
4.42122e-58
-1.90812e-60
4.54064e-63
-5.0325e-06
-1.08721e-09
2.55922e-09
1.01405e-08
-3.90911e-09
-5.30289e-08
-4.09505e-08
2.04415e-07
3.87696e-07
-1.09389e-06
-7.14321e-06
-1.77253e-05
-1.97173e-05
3.44577e-05
0.000243274
0.000789899
0.00197688
0.00416761
0.00782544
0.0134634
0.0214176
0.0324394
0.0464308
0.0626909
0.0824754
0.103391
0.125013
0.145432
0.165125
0.180657
0.190342
0.192841
0.193452
0.185287
0.17055
0.149938
0.126336
0.100085
0.0708189
0.04232
0.0143055
-0.0103537
-0.0326875
-0.0495145
-0.0595017
-0.0699979
-0.0754584
-0.075751
-0.0757647
-0.0725756
-0.0663672
-0.0594051
-0.0528548
-0.0470614
-0.0403113
-0.033132
-0.0277698
-0.0224578
-0.0178807
-0.0141649
-0.0106541
-0.0084206
-0.00644552
-0.00480387
-0.00358124
-0.00266937
-0.00198962
-0.00145706
-0.00101273
-0.000736438
-0.000517256
-0.000356413
-0.000245963
-0.000171376
-0.000115861
-7.78857e-05
-5.11764e-05
-3.49023e-05
-2.31249e-05
-1.57304e-05
-8.04249e-06
-5.28817e-06
-1.16632e-11
4.77056e-12
-2.98635e-12
3.74464e-11
-4.03046e-11
7.99299e-11
1.42835e-10
-1.48634e-10
6.10239e-10
1.72559e-10
-6.01584e-10
-1.66336e-09
2.28756e-11
-1.05064e-11
1.28144e-11
1.10386e-12
7.70197e-12
3.54669e-12
-1.84721e-11
3.92309e-11
-2.32253e-11
1.42565e-11
1.17648e-11
-7.78282e-11
-5.82149e-11
6.41002e-11
1.06461e-11
-4.95414e-11
3.05044e-11
-7.70999e-11
-8.60389e-11
6.62613e-12
-3.67982e-11
5.99611e-11
2.63546e-11
8.65184e-11
8.92907e-11
-4.11887e-11
4.19877e-11
-1.41767e-11
-5.85213e-11
2.09704e-11
1.86722e-11
5.14739e-11
5.62098e-11
-1.02081e-10
1.36699e-10
-1.44317e-10
-1.13836e-10
-6.08607e-10
-6.5739e-10
-5.90045e-10
-3.41276e-10
1.08153e-10
-1.9823e-10
1.03312e-09
2.09563e-10
1.00497e-09
9.60517e-10
3.09032e-11
-6.26634e-11
-2.28655e-09
-4.22358e-10
-4.93051e-09
-2.88758e-09
-5.38072e-09
-5.00981e-09
-3.12151e-09
-3.90186e-09
1.13664e-09
3.15236e-10
4.10849e-09
3.61039e-09
-2.01194e-10
2.98477e-09
-1.41585e-08
-7.98716e-09
-3.60021e-08
-3.16979e-08
-4.75124e-08
-6.55945e-08
-2.81187e-08
-9.69961e-08
4.80416e-08
-1.0391e-07
2.0465e-07
-5.26515e-08
4.23888e-07
4.92222e-08
6.35076e-07
1.78994e-07
6.63857e-07
2.29563e-07
2.93334e-07
-1.21768e-08
-7.53445e-07
-8.49758e-07
-2.65749e-06
-2.65454e-06
-5.36895e-06
-5.83391e-06
-8.27689e-06
-1.05666e-05
-9.34562e-06
-1.66151e-05
-5.3933e-06
-2.35397e-05
9.4515e-06
-2.82862e-05
4.2967e-05
-2.72519e-05
0.000107853
-1.56962e-05
0.000220319
1.8695e-05
0.000408723
8.01807e-05
0.000691173
0.000202526
0.00110726
0.000382016
0.00170612
0.000663484
0.00250836
0.00106685
0.00357665
0.00160368
0.00501313
0.00234922
0.00679279
0.00335756
0.00900026
0.00456473
0.0117606
0.00612387
0.0149897
0.00800193
0.0188855
0.0101755
0.0232306
0.0128287
0.0285479
0.0157446
0.0342518
0.019338
0.040626
0.023029
0.0481137
0.027465
0.0555994
0.0321081
0.0636837
0.0367779
0.0730585
0.0422077
0.0822938
0.048099
0.091505
0.0533815
0.102001
0.059431
0.111236
0.0648357
0.120435
0.0695423
0.130517
0.0747366
0.137791
0.0790166
0.146975
0.0831976
0.155637
0.0885501
0.161976
0.0917834
0.167923
0.0933181
0.171057
0.0942506
0.175334
0.0944928
0.177011
0.0943424
0.176241
0.0911967
0.176406
0.0890763
0.172348
0.0839071
0.167212
0.0772016
0.162496
0.0709808
0.153135
0.062612
0.146061
0.0542826
0.137299
0.0472206
0.126149
0.0376653
0.114913
0.0266827
0.101884
0.0159353
0.0902648
0.00426387
0.0766676
-0.00625933
0.0634598
-0.0183599
0.0494415
-0.0283128
0.036609
-0.0398358
0.023698
-0.0503168
0.010908
-0.0598659
-0.00150086
-0.068882
-0.0119812
-0.0776745
-0.023682
-0.0848552
-0.0337796
-0.0916213
-0.0422621
-0.0977872
-0.0492382
-0.102442
-0.0562497
-0.106819
-0.0625503
-0.109662
-0.0666334
-0.111654
-0.0727598
-0.112966
-0.0738608
-0.113007
-0.0749694
-0.111891
-0.0775421
-0.111135
-0.0784908
-0.109603
-0.0768953
-0.106624
-0.0775629
-0.103961
-0.0746488
-0.0998546
-0.0718837
-0.0953061
-0.0707329
-0.0912265
-0.0661196
-0.0858798
-0.063653
-0.0817049
-0.0615526
-0.0779167
-0.0583357
-0.0732457
-0.0550097
-0.0684728
-0.0509062
-0.0634552
-0.0477387
-0.0591657
-0.0446737
-0.0547697
-0.0404823
-0.05007
-0.0381816
-0.0461091
-0.0342887
-0.0418083
-0.0309926
-0.0377926
-0.0287541
-0.0346626
-0.0260103
-0.0313427
-0.0231025
-0.02797
-0.0210755
-0.0252522
-0.0189032
-0.0226072
-0.0169349
-0.0201698
-0.0149444
-0.0178828
-0.0133304
-0.0159173
-0.011856
-0.0140926
-0.0103546
-0.0123503
-0.00929194
-0.0109501
-0.00801612
-0.00951464
-0.00695473
-0.00826354
-0.00615394
-0.007262
-0.00539056
-0.00634904
-0.00460672
-0.00546443
-0.0040389
-0.00475744
-0.00348222
-0.00410205
-0.00300024
-0.00352751
-0.00255869
-0.00301553
-0.00219532
-0.00259259
-0.00188232
-0.00221506
-0.0015832
-0.00186508
-0.00133025
-0.0015669
-0.00113789
-0.00133988
-0.000968017
-0.00113959
-0.000828641
-0.000973435
-0.000703747
-0.000825384
-0.000582827
-0.00068826
-0.000498056
-0.000582363
-0.000411254
-0.000482581
-0.000339241
-0.000400082
-0.000286071
-0.000335078
-0.000232519
-0.000274034
-0.000194418
-0.000229018
-0.000163578
-0.000192341
-0.000135442
-0.000159496
-0.000112163
-0.000131886
-9.192e-05
-0.000108524
-7.60975e-05
-8.9811e-05
-6.28899e-05
-7.39005e-05
-5.08096e-05
-6.00674e-05
-4.23035e-05
-4.96908e-05
-3.43402e-05
-4.04966e-05
-2.81465e-05
-3.30849e-05
-2.33963e-05
-2.71977e-05
-1.88736e-05
-2.1833e-05
-1.46732e-05
-1.72659e-05
-1.18662e-05
-1.43908e-05
-1.12613e-05
-7.92629e-06
-1.23593e-05
-2.06946e-21
4.21187e-20
1.46009e-17
1.8498e-15
7.51187e-14
-5.0226e-13
1.08172e-11
1.28113e-09
5.86437e-08
1.63357e-08
7.48466e-07
5.92192e-07
2.02087e-07
0
-4.65921e-49
-1.19595e-39
-2.81857e-33
-9.50139e-29
-7.34571e-27
4.41136e-25
1.07331e-24
1.86763e-24
3.65255e-24
6.15159e-24
-2.42275e-23
-3.19871e-23
-3.73514e-23
-9.05359e-23
4.66163e-23
-3.03028e-23
-3.29632e-23
-3.19399e-23
-2.92095e-23
-4.58794e-23
-6.57393e-23
-3.73556e-23
-4.77231e-23
-4.82751e-23
-5.0252e-23
-6.69621e-23
-1.94849e-22
-2.33878e-22
-1.39845e-22
-8.77758e-23
-1.44171e-22
-2.46068e-22
-4.11438e-22
-5.73659e-22
-6.19099e-22
-4.30275e-22
-1.58118e-22
1.24988e-22
2.93387e-22
5.2242e-22
4.74657e-22
5.17392e-22
4.66857e-22
2.59275e-22
1.36455e-22
5.77686e-23
-2.87885e-23
-7.17127e-23
-1.08284e-22
-1.07779e-22
-9.28108e-23
-5.67494e-23
-4.71923e-23
-2.77027e-23
-1.80872e-23
-1.09141e-23
-5.15461e-24
-2.15013e-24
-6.47912e-25
3.12863e-25
7.65561e-25
1.02055e-24
9.94492e-25
8.60153e-25
5.44886e-25
4.47105e-25
3.59459e-25
1.27733e-25
1.51451e-25
1.04087e-25
8.88557e-26
5.89133e-26
2.29934e-26
3.42926e-27
-1.27777e-26
-1.93902e-26
-2.08196e-26
-2.24796e-26
-1.82533e-26
-1.29144e-26
-5.74322e-27
-2.54005e-27
-6.57449e-28
4.22208e-28
1.33907e-27
9.98789e-28
1.34966e-27
1.23941e-27
7.02827e-28
4.75751e-28
2.30621e-28
1.71393e-28
1.04347e-28
5.48788e-29
1.72451e-29
8.04515e-29
1.92027e-27
7.17524e-25
-1.58689e-22
-3.78147e-67
1.56006e-08
1.00482e-08
6.87315e-07
3.68797e-07
-1.3055e-07
-2.69083e-09
-1.03492e-10
-3.65487e-11
-5.75841e-13
7.97605e-15
1.38732e-16
3.84316e-19
4.5597e-21
-1.02746e-22
1.05151e-24
1.80557e-26
-3.79921e-28
2.34721e-31
1.14222e-32
-7.28041e-36
-3.6129e-37
2.26649e-39
-7.51712e-43
-5.42704e-44
4.48383e-46
-2.28636e-48
1.37914e-50
-1.31547e-52
1.32724e-54
-1.18899e-56
7.07775e-59
-3.02839e-61
-5.90046e-12
6.84722e-64
-8.65355e-10
6.09322e-09
7.65196e-09
-2.85488e-08
-6.85338e-08
4.60082e-08
3.74506e-07
1.99174e-08
-3.34458e-06
-1.22742e-05
-2.15635e-05
-4.66763e-06
0.000110796
0.000461281
0.00129165
0.00291324
0.00576731
0.0104539
0.017126
0.0265963
0.0387745
0.0539123
0.0722001
0.0919871
0.112913
0.136308
0.154396
0.171245
0.186029
0.192228
0.194988
0.189225
0.176697
0.16245
0.138379
0.113724
0.0852377
0.0562491
0.0276916
0.00268412
-0.0196258
-0.0406512
-0.0543516
-0.0657809
-0.0735452
-0.0744063
-0.0776297
-0.0728993
-0.0676425
-0.0642625
-0.0563237
-0.05001
-0.042722
-0.0356171
-0.030597
-0.0242774
-0.0195196
-0.015705
-0.0122288
-0.00949815
-0.00742991
-0.00546317
-0.00424857
-0.00309914
-0.00230595
-0.00167223
-0.0011895
-0.000861832
-0.000605045
-0.000420601
-0.000301687
-0.000203485
-0.00013763
-9.38311e-05
-6.19798e-05
-4.23138e-05
-2.77702e-05
-1.8845e-05
-1.41626e-05
2.50849e-12
2.11115e-11
-2.5005e-11
6.41772e-12
-3.11853e-11
-2.35024e-11
2.17446e-11
-2.07185e-10
-1.85053e-10
7.26678e-10
-4.96744e-10
-1.49512e-11
1.73076e-11
-5.529e-12
4.00105e-12
-3.49379e-12
1.99701e-11
-3.61995e-12
-1.15139e-12
6.26184e-12
-2.7761e-15
5.21305e-13
-8.16726e-19
-1.85112e-16
-1.49657e-14
-1.84556e-13
2.67484e-12
-1.41775e-10
-1.04946e-08
-1.98814e-07
1.98096e-17
0
-1.44175e-43
-7.42625e-37
-1.44882e-30
2.00442e-28
-3.87925e-26
-8.43059e-25
-1.87195e-24
-3.46864e-24
-4.66977e-24
1.25734e-23
3.26022e-23
1.93329e-23
3.74101e-23
2.73874e-23
-1.14879e-22
2.97063e-24
-3.2964e-23
-5.91254e-23
-2.72827e-23
-4.01647e-23
-6.9128e-23
-2.50308e-23
-5.33829e-23
-6.66287e-23
-1.01692e-22
-1.33045e-22
-8.70631e-23
-1.513e-22
-1.77848e-22
-1.43338e-22
-1.89079e-22
-4.33417e-22
-5.59243e-22
-6.30361e-22
-3.77709e-22
-3.17249e-22
7.61651e-23
1.59217e-22
5.01704e-22
6.35677e-22
6.17951e-22
5.15501e-22
3.91099e-22
2.32616e-22
1.13057e-22
8.91628e-24
-3.80121e-23
-8.87748e-23
-1.02158e-22
-9.08174e-23
-9.14177e-23
-5.24414e-23
-4.31726e-23
-2.11731e-23
-1.50836e-23
-8.15834e-24
-3.62028e-24
-1.43725e-24
8.3431e-26
4.98245e-25
8.37482e-25
9.75114e-25
8.18551e-25
8.58722e-25
5.22511e-25
3.84599e-25
3.79452e-25
1.28924e-25
2.00069e-25
7.6432e-26
8.40884e-26
5.24079e-26
2.05191e-26
4.55472e-28
-2.2298e-26
-1.83542e-26
-2.25749e-26
-1.98672e-26
-1.45077e-26
-1.02565e-26
-4.57905e-27
-2.00966e-27
4.84215e-28
1.23073e-27
1.65778e-27
1.48737e-27
1.34674e-27
1.11635e-27
6.72771e-28
4.49388e-28
2.11925e-28
1.41656e-28
8.20305e-29
4.15716e-29
3.40066e-29
-4.53744e-28
-3.76058e-26
3.80643e-23
-8.48171e-66
0
-7.54464e-13
1.92212e-14
2.53223e-16
6.49834e-19
8.47497e-21
-2.19795e-22
2.66692e-24
2.68098e-26
-7.26467e-28
4.73391e-31
1.92295e-32
-9.36251e-36
-6.71955e-37
3.8078e-39
-2.31639e-42
-8.65598e-44
7.57723e-46
-4.0822e-48
2.52071e-50
-2.58055e-52
2.63647e-54
-2.20786e-56
1.32765e-58
-6.0102e-61
1.75977e-63
2.73929e-09
8.50735e-09
-1.12254e-08
-6.09348e-08
-9.93472e-09
2.97322e-07
4.81129e-07
-1.50036e-06
-9.21792e-06
-2.52038e-05
-4.21852e-05
-2.83109e-05
8.61719e-05
0.000438669
0.00125024
0.00275837
0.00537248
0.00921682
0.0149316
0.0224358
0.0315827
0.0426271
0.0550197
0.0675566
0.0814994
0.0907154
0.0996756
0.105827
0.104148
0.101025
0.0929258
0.0782556
0.0638426
0.0402322
0.018229
-0.00652382
-0.0313159
-0.0529593
-0.0743538
-0.0910509
-0.103912
-0.112461
-0.116249
-0.11802
-0.114496
-0.110534
-0.102265
-0.0926211
-0.0842833
-0.073065
-0.064186
-0.054626
-0.0453405
-0.0381523
-0.0304968
-0.0242745
-0.0194045
-0.0151086
-0.0116245
-0.00904222
-0.0067112
-0.00512537
-0.00373715
-0.00279076
-0.00202962
-0.00144887
-0.00104129
-0.000733368
-0.000510457
-0.00036243
-0.000244812
-0.000166871
-0.000113787
-7.54478e-05
-5.11257e-05
-3.38473e-05
-2.28414e-05
-1.63227e-05
-2.54399e-11
-2.54376e-11
-2.6197e-11
-1.09607e-10
6.50787e-11
-8.5219e-11
-1.6135e-10
2.33344e-10
-1.78821e-11
1.0674e-11
-8.49584e-12
4.79807e-13
1.68886e-12
-4.10087e-12
-1.30265e-11
1.61277e-11
-1.14194e-11
5.8756e-12
3.78806e-11
1.70924e-13
-2.47199e-13
5.63699e-12
1.84681e-09
1.06006e-07
0
1.68226e-37
1.11799e-31
9.49203e-28
7.66649e-26
-1.28087e-24
-4.53106e-24
-7.56236e-24
-3.79079e-24
-1.69022e-23
3.77918e-24
-1.64331e-23
4.69278e-23
1.27003e-22
-1.50547e-22
8.35101e-23
2.26541e-23
5.92151e-23
6.42233e-23
2.41689e-23
8.2953e-23
1.367e-22
1.09323e-22
1.40097e-22
1.04483e-23
-1.69484e-22
7.46187e-24
-1.21857e-22
-6.62799e-23
2.68617e-22
5.14618e-22
3.49441e-22
9.31825e-23
-3.9462e-22
-7.64316e-22
-1.21384e-21
-1.18425e-21
-1.19514e-21
-9.05216e-22
-5.22779e-22
-2.71496e-22
4.42681e-24
2.19102e-22
3.24503e-22
3.06111e-22
2.18479e-22
2.40636e-22
1.32211e-22
9.05829e-23
4.9224e-23
-3.80681e-25
1.77955e-23
-1.17912e-23
-3.02277e-24
-7.93256e-24
-6.87385e-24
-4.3759e-24
-2.74839e-24
-1.83193e-24
-1.3453e-24
-1.07718e-24
-5.16136e-25
-4.44334e-25
6.13188e-26
-1.17812e-25
-1.62414e-25
1.11761e-26
-3.24782e-25
-2.41698e-25
-1.36204e-25
-4.80428e-27
1.03551e-26
3.98111e-26
5.40327e-26
3.98291e-26
4.40906e-26
2.04961e-26
9.10835e-27
2.53865e-27
-4.26942e-27
-5.11365e-27
-6.70854e-27
-4.32409e-27
-3.99235e-27
-2.76845e-27
-1.87432e-27
-8.35358e-28
-1.17424e-28
2.59316e-28
3.07716e-28
-2.44349e-29
2.02914e-28
7.65567e-29
1.53924e-28
1.44135e-28
-1.45008e-27
1.33121e-26
-1.04008e-23
-1.41804e-17
-6.59225e-20
2.19809e-22
1.67909e-23
-5.80123e-25
3.88174e-27
4.32768e-29
-2.51409e-31
-7.87106e-34
6.22145e-36
1.45674e-38
-3.82641e-40
2.49368e-42
-9.35118e-45
1.43856e-47
1.01755e-49
-1.49246e-51
1.49517e-53
-1.26846e-55
7.89108e-58
-3.52594e-60
9.52036e-63
-8.57086e-10
6.31854e-09
3.28034e-09
-3.60596e-08
-6.19332e-08
1.12303e-07
4.82989e-07
-3.04577e-08
-4.37298e-06
-1.62664e-05
-3.48254e-05
-4.32368e-05
1.18807e-05
0.000226509
0.000788123
0.00190211
0.00391962
0.00717565
0.0117972
0.018544
0.0268709
0.0367642
0.0490026
0.0614999
0.0744158
0.0863151
0.0964571
0.103595
0.106641
0.102799
0.0988336
0.0878293
0.0715145
0.0521075
0.029175
0.00689926
-0.0179124
-0.0423727
-0.0639228
-0.0826271
-0.0971674
-0.108764
-0.113914
-0.117586
-0.116678
-0.112501
-0.106776
-0.0981913
-0.0883618
-0.0782816
-0.0685849
-0.0598171
-0.0503439
-0.0416142
-0.0344087
-0.0275054
-0.0218191
-0.0173116
-0.0131348
-0.0102777
-0.00782923
-0.00585807
-0.00435763
-0.00322866
-0.00240541
-0.00174382
-0.00122482
-0.000884498
-0.000620639
-0.000431002
-0.000296018
-0.000205465
-0.000138959
-9.3688e-05
-6.18941e-05
-4.20389e-05
-2.79627e-05
-1.89526e-05
2.94004e-11
-4.7079e-13
5.5248e-11
2.01669e-11
4.35002e-11
8.51483e-11
-2.85462e-10
1.83378e-10
6.83355e-10
-1.59183e-12
-1.13585e-12
-2.81062e-12
-5.18609e-12
1.46568e-11
-1.21028e-11
3.21486e-12
-8.20996e-13
-9.14544e-19
-3.09824e-16
-2.97019e-14
-6.17929e-13
6.55889e-12
-1.99743e-10
-1.70802e-08
-5.09553e-07
3.38881e-41
8.05091e-35
2.78075e-29
1.33159e-27
-7.98205e-26
4.81847e-24
5.97902e-24
1.2967e-23
1.05958e-23
-1.36521e-24
2.50305e-23
-1.32321e-23
-4.67253e-23
-9.94405e-24
1.12701e-22
6.09619e-23
7.71833e-23
1.50764e-22
2.03808e-23
3.16519e-23
1.42128e-22
9.34305e-23
2.13055e-22
1.64059e-22
3.38888e-23
-1.72925e-22
-3.08267e-22
-8.88746e-23
3.16936e-22
4.53386e-22
4.89112e-22
3.70194e-22
-1.09532e-22
-5.91755e-22
-1.00679e-21
-1.03992e-21
-9.686e-22
-1.15705e-21
-6.38915e-22
-5.89923e-22
-1.40214e-22
1.51155e-22
1.6365e-22
2.38345e-22
1.92989e-22
2.23137e-22
1.39266e-22
7.9609e-23
4.87549e-23
1.92604e-23
1.98646e-23
-8.24689e-24
-5.72617e-24
-4.5055e-24
-7.831e-24
-4.60398e-24
-3.70092e-24
-2.78341e-24
-1.60481e-24
-1.0553e-24
-6.87647e-25
-5.14332e-25
-1.14121e-25
-4.52282e-26
-1.21396e-25
-3.0928e-26
-3.5509e-25
-2.97672e-25
-8.30208e-26
-9.12118e-26
-1.61356e-26
-8.80677e-27
3.57931e-26
4.57811e-26
3.90799e-26
2.58392e-26
1.11791e-26
5.01749e-27
-1.88898e-27
-3.49613e-27
-4.80498e-27
-4.28904e-27
-4.73734e-27
-3.4195e-27
-3.02346e-27
-1.49763e-27
-4.23281e-28
-2.15954e-28
4.25627e-29
-2.70668e-28
9.81896e-29
-1.29883e-30
1.20539e-28
1.16567e-28
5.20097e-29
7.78311e-27
5.16436e-25
-7.16517e-10
-4.26204e-14
1.00284e-11
3.72042e-10
-7.29629e-11
-7.94111e-13
-2.37848e-09
-3.38971e-12
-2.88191e-12
3.63344e-20
3.54893e-15
0
1.05244e-45
0
0
0
0
0
0
0
0
0
0
0
0
0
0
0
0
0
0
0
0
0
0
0
0
0
0
0
0
0
0
0
0
0
0
0
0
0
0
0
0
0
0
0
0
0
0
0
0
0
0
0
0
0
0
0
0
0
0
0
0
0
0
0
0
0
0
0
0
0
0
0
0
0
0
0
0
0
0
0
0
0
0
0
0
0
0
0
0
0
0
0
0
0
0
0
0
0
0
0
0
0
0
0
0
0
0
0
0
0
0
0
0
0
0
0
0
0
0
0
0
0
0
0
0
0
0
0
0
0
0
0
0
0
0
0
0
0
0
0
0
0
0
0
0
0
0
0
0
0
0
0
0
0
0
0
0
0
0
0
0
0
0
0
0
0
0
0
0
0
0
0
0
0
0
0
0
0
0
0
0
0
0
0
0
0
0
0
0
0
0
0
0
0
0
0
3.14511e-12
0
0
0
0
0
0
0
0
0
0
0
0
0
0
0
0
0
0
0
0
0
0
0
0
0
0
0
0
0
0
0
0
0
0
0
0
0
0
0
0
0
0
0
0
0
0
0
0
0
0
0
0
-2.35407e-150
-5.27882e-151
4.93588e-139
5.31313e-139
-1.77787e-131
-3.16159e-135
2.16031e-128
2.73317e-128
2.10292e-127
-8.11667e-127
-6.59707e-123
-1.4751e-125
-3.39023e-119
9.40486e-121
-1.94733e-118
8.422e-118
-1.19501e-117
3.87063e-117
-1.48725e-116
8.37218e-117
-2.33232e-114
-2.42808e-114
-1.9567e-113
-2.26879e-113
-8.02115e-113
1.38786e-112
-5.89948e-111
6.29008e-112
-8.14255e-110
-9.46212e-110
1.60812e-109
-3.10161e-109
-2.56248e-109
-5.01616e-108
-8.39689e-107
-1.23284e-106
-4.94965e-107
-9.60107e-107
3.6165e-107
-3.0105e-106
-2.7671e-106
-6.83657e-106
-3.16506e-105
-5.38295e-105
-1.97747e-105
-4.01235e-105
-2.63492e-103
-3.24885e-103
-3.35489e-103
-4.07491e-103
-2.17572e-103
-2.62094e-103
-3.87024e-103
-2.75351e-103
-1.27278e-102
-1.50084e-102
-1.51982e-102
-1.35656e-102
-5.81823e-102
-6.26096e-102
-3.18797e-102
-7.78884e-102
1.61718e-102
-1.53696e-101
-4.40655e-101
-2.78667e-101
-1.26058e-100
3.24745e-100
-9.66664e-101
6.5815e-101
-2.631e-100
5.54963e-100
-6.45006e-100
1.35835e-99
-6.83183e-99
4.13711e-99
-2.54071e-99
-1.1367e-98
-7.10504e-98
-1.41193e-97
-3.53447e-98
-1.6417e-97
5.59067e-100
-1.29952e-97
-8.83672e-97
-1.10647e-96
-1.29894e-96
-1.85733e-96
-4.07649e-96
9.0309e-96
-1.48546e-95
-7.66666e-96
-2.44345e-95
-2.24919e-95
-3.06822e-95
-2.8104e-95
-2.11925e-95
-1.62893e-95
-3.4074e-95
-1.73872e-95
-2.65265e-95
-4.47206e-96
-2.45012e-95
9.29385e-96
-4.77885e-95
-1.47792e-95
-6.75821e-95
-3.82718e-95
-5.68332e-95
-3.93659e-96
-1.58698e-94
-3.74735e-95
-1.64128e-94
-5.42274e-95
-1.73497e-94
1.6739e-94
-3.8785e-94
6.92342e-94
-6.53591e-94
4.30096e-94
-8.2955e-94
1.19842e-93
-4.02529e-93
1.23487e-93
-3.52214e-93
1.25699e-93
-4.43613e-93
2.31423e-93
-8.68681e-94
-9.98571e-93
4.36584e-93
-1.36781e-92
1.41069e-92
-2.58924e-92
3.20697e-92
-3.48746e-92
9.19707e-92
-1.10015e-91
9.5884e-92
-1.15692e-91
1.09084e-91
-9.52778e-92
2.22789e-91
8.25611e-93
1.89918e-91
-3.62721e-93
1.27039e-91
1.98628e-91
-1.56042e-91
8.08714e-91
-4.32798e-91
1.21651e-90
-9.9352e-91
2.17156e-90
-2.09473e-90
4.9925e-90
-3.87462e-90
5.29893e-90
-7.21975e-90
1.51976e-89
-2.55183e-89
2.03465e-89
-2.7808e-89
3.40604e-89
-3.10021e-89
3.56568e-89
-3.22741e-89
3.191e-89
-6.03014e-89
2.46281e-89
-6.13222e-89
4.10837e-89
-6.0815e-89
4.33906e-89
-1.24405e-88
1.17412e-88
-1.86383e-88
1.39108e-88
-2.23321e-88
2.42692e-88
-3.39559e-88
4.32644e-88
-5.74765e-88
2.29628e-88
-5.81932e-88
1.67556e-88
-9.4456e-88
-2.58038e-88
-7.80229e-88
2.25416e-88
-6.33146e-88
2.22679e-88
-6.68429e-88
6.42402e-88
-8.27646e-88
6.96456e-88
-1.91729e-87
1.25365e-87
-2.23973e-87
2.0748e-87
-5.31773e-87
2.63109e-87
-7.10323e-87
2.62875e-87
-6.5642e-87
2.45842e-87
-7.08272e-87
4.78144e-87
-8.96163e-87
1.03325e-87
-9.17764e-87
3.83226e-87
-1.09242e-86
-1.96447e-87
-8.78528e-87
1.30791e-88
-6.97402e-87
8.14335e-88
-6.29384e-87
1.84777e-87
-5.31497e-87
2.495e-87
-5.36318e-87
4.53426e-87
-1.04901e-86
2.33552e-87
-1.03115e-86
7.25274e-87
-1.31001e-86
6.50892e-87
-1.23626e-86
7.25501e-87
-1.98841e-86
3.08797e-87
-1.79808e-86
6.75678e-87
-1.70609e-86
6.68535e-87
-2.32323e-86
9.30861e-87
-2.16753e-86
7.18085e-87
-3.41425e-86
4.18545e-86
-5.37297e-86
3.25057e-86
-7.41214e-86
1.14657e-86
-6.77573e-86
1.63839e-86
-7.9652e-86
1.67591e-86
-7.86264e-86
3.35437e-86
-9.38983e-86
1.30338e-86
-7.94328e-86
2.93314e-86
-1.2575e-85
1.86925e-86
-1.20261e-85
5.4026e-86
-1.12915e-85
4.14217e-86
-1.49078e-85
5.01434e-86
-1.66572e-85
3.627e-86
-1.45075e-85
3.67506e-86
-1.45715e-85
7.97773e-86
-1.40924e-85
2.40232e-86
-1.31311e-85
5.64601e-86
-1.09997e-85
4.46025e-86
-1.02854e-85
4.04502e-86
-1.08641e-85
3.47472e-87
-8.68359e-86
1.21134e-86
-8.06801e-86
4.28609e-87
-8.20171e-86
-9.2522e-87
-6.58406e-86
-1.14421e-87
-7.33593e-86
2.24841e-87
-6.96628e-86
4.62562e-87
-5.72862e-86
2.1585e-87
-4.80887e-86
1.068e-86
-4.21472e-86
8.39828e-88
-3.34692e-86
5.18372e-87
-3.3643e-86
6.91384e-87
-2.96997e-86
4.04615e-87
-2.38712e-86
-1.13724e-87
2.03658e-86
1.9611e-86
1.40608e-84
-8.29479e-85
-1.54606e-83
9.38924e-84
-2.37636e-82
-1.0903e-82
-3.51193e-81
2.12088e-81
-6.86575e-80
-3.46697e-80
-1.81697e-78
-1.85906e-78
-1.22798e-76
2.94574e-76
-1.35034e-75
-1.56264e-74
-1.68901e-74
-9.72958e-75
4.50369e-73
-8.27946e-73
-3.72327e-72
-4.69171e-72
-2.31485e-71
-3.50945e-70
2.26796e-69
4.72413e-70
-2.32341e-68
-7.58748e-68
-1.53273e-66
-1.76443e-66
-8.45608e-66
-1.12128e-65
6.58548e-68
-6.37483e-14
-2.49998e-09
-1.20659e-07
5.99857e-07
9.15572e-07
-2.02351e-07
-7.11805e-11
3.86229e-10
-1.40256e-10
2.38632e-16
2.31505e-11
6.06194e-19
8.82242e-21
-2.32582e-22
2.71226e-24
2.67999e-26
-7.23094e-28
2.64569e-31
1.79267e-32
-4.1952e-37
-6.73173e-37
3.4979e-39
-3.45809e-43
-9.24907e-44
7.74588e-46
-4.04373e-48
2.53196e-50
-2.64034e-52
2.70901e-54
-2.27571e-56
1.31869e-58
-5.8419e-61
1.5841e-63
-2.8575e-65
-6.97711e-11
3.54646e-12
4.17514e-09
-2.22698e-09
-3.39259e-08
-4.5929e-08
9.44285e-08
2.97018e-07
-3.22534e-07
-3.74378e-06
-1.17277e-05
-2.1019e-05
-1.59932e-05
3.92249e-05
0.000212155
0.000611548
0.0013264
0.00251962
0.00427806
0.0065458
0.00967798
0.0129654
0.0159442
0.0195527
0.0214879
0.0227051
0.0219801
0.0192707
0.0145604
0.00740932
-0.00276258
-0.0109689
-0.0206582
-0.0313261
-0.0408578
-0.048013
-0.0535302
-0.0579211
-0.0599664
-0.0596212
-0.0556861
-0.0520559
-0.0467874
-0.0380415
-0.0330133
-0.0264605
-0.0201489
-0.0159825
-0.0108361
-0.00729765
-0.00429125
-0.00199236
-0.0014617
-0.000189752
0.00051841
0.000813348
0.00115152
0.00120653
0.00104747
0.00125277
0.000931474
0.000829289
0.000688965
0.000551736
0.000432874
0.000295979
0.000214417
0.000179322
0.000124312
8.68348e-05
6.13346e-05
4.58311e-05
3.01181e-05
2.08821e-05
1.53162e-05
1.15935e-05
7.53783e-06
4.39179e-06
2.09625e-06
-2.63695e-11
-1.00018e-05
1.74362e-13
8.45355e-12
-9.60826e-12
-4.69721e-11
-4.01582e-11
8.77707e-12
-1.45731e-10
5.73209e-11
1.74688e-10
-6.45532e-12
5.33941e-12
-1.07278e-11
-7.56648e-10
1.53668e-12
-2.05211e-12
-3.62953e-12
2.91603e-20
5.17322e-13
-4.18756e-12
-7.54403e-15
6.53957e-12
-1.86466e-11
8.95058e-12
-6.69722e-12
3.72395e-12
-2.6817e-12
3.80664e-12
-2.76904e-15
3.92279e-16
-1.1752e-09
-9.59011e-10
-6.05852e-13
-2.03567e-13
8.1274e-11
6.93506e-11
9.99838e-11
-1.62857e-11
6.79036e-13
2.70415e-11
3.11821e-12
1.5493e-11
2.95924e-11
-2.47094e-12
1.39693e-11
-9.7344e-11
-2.0472e-11
-1.3295e-10
-1.09498e-10
-3.45354e-11
-3.91311e-11
4.52328e-11
2.40574e-11
1.54999e-10
1.08256e-10
1.07355e-10
1.50534e-10
-1.61791e-10
2.10851e-10
8.42185e-11
1.79459e-10
1.96286e-10
2.41446e-10
-1.1705e-11
3.96037e-10
1.31131e-10
7.52614e-10
-9.87143e-10
4.91016e-10
-1.03256e-09
-6.37945e-11
-1.90996e-09
1.53572e-10
-1.52304e-09
5.59835e-10
6.10327e-10
2.31916e-09
4.61312e-09
6.32081e-09
6.32975e-09
1.11487e-08
3.85515e-09
1.49182e-08
-6.44027e-09
1.40351e-08
-2.57086e-08
6.84207e-09
-4.88263e-08
-6.84255e-09
-6.38613e-08
-1.82175e-08
-5.44079e-08
-1.18298e-08
1.4798e-09
2.91669e-08
8.90598e-08
1.11959e-07
1.8222e-07
2.40019e-07
1.93008e-07
3.59027e-07
-4.48074e-08
3.60119e-07
-7.47284e-07
8.42172e-08
-2.1484e-06
-7.37616e-07
-4.44671e-06
-2.38643e-06
-7.59497e-06
-5.18678e-06
-1.11452e-05
-9.39516e-06
-1.41791e-05
-1.46959e-05
-1.49864e-05
-2.14944e-05
-9.94258e-06
-2.85446e-05
5.33868e-06
-3.41796e-05
3.61497e-05
-3.37939e-05
9.3192e-05
-2.66175e-05
0.000187531
-1.12141e-05
0.000324855
3.47361e-05
0.000517414
9.25985e-05
0.000790577
0.000187437
0.00114278
0.000312836
0.0016009
0.000480083
0.00220758
0.000687474
0.00290515
0.00100619
0.0037309
0.00128561
0.00468282
0.00168512
0.00585381
0.00208446
0.00700105
0.0026183
0.008374
0.00306128
0.0097977
0.00351902
0.0113048
0.00419984
0.0128298
0.00453411
0.0143746
0.00527314
0.0156185
0.00544106
0.0169883
0.00539077
0.0184919
0.00555606
0.0192293
0.00579974
0.0199335
0.00482871
0.0201579
0.00500754
0.0195967
0.00374229
0.0191226
0.00201911
0.0174346
0.00097709
0.0163097
-0.00191892
0.015601
-0.00363901
0.013542
-0.00479044
0.010911
-0.00735754
0.00731201
-0.00988754
0.00417273
-0.0133369
0.000683683
-0.015781
-0.00404519
-0.0182647
-0.00769361
-0.0225038
-0.0130259
-0.0241517
-0.0182258
-0.027802
-0.0225585
-0.0310843
-0.0272755
-0.032599
-0.0312996
-0.0360305
-0.0341509
-0.0373472
-0.0376315
-0.037874
-0.0414408
-0.0391781
-0.0441449
-0.0399107
-0.0464378
-0.0401551
-0.0480323
-0.0397398
-0.0501062
-0.0396162
-0.0504026
-0.0386156
-0.0514251
-0.037792
-0.050688
-0.0357652
-0.0498524
-0.0330749
-0.0492961
-0.0311762
-0.0474856
-0.029037