/*--------------------------------*- C++ -*----------------------------------*\
  =========                 |
  \\      /  F ield         | OpenFOAM: The Open Source CFD Toolbox
   \\    /   O peration     | Website:  https://openfoam.org
    \\  /    A nd           | Version:  7
     \\/     M anipulation  |
\*---------------------------------------------------------------------------*/
FoamFile
{
    version     2.0;
    format      ascii;
    class       volScalarField;
    location    "0.28";
    object      T;
}
// * * * * * * * * * * * * * * * * * * * * * * * * * * * * * * * * * * * * * //

dimensions      [0 0 0 1 0 0 0];

internalField   nonuniform List<scalar> 
45544
(
0
0
0
0
0
0
0
0
0
0
0
0
0
0
0
0
0
0
0
0
0
0
0
0
0
0
0
0
0
0
0
0
0
0
0
0
0
0
0
0
0
0
0
0
0
0
0
0
0
0
0
0
0
0
0
0
0
0
0
0
0
0
0
0
0
0
0
0
0
0
0
0
0
0
0
0
0
0
0
0
0
0
0
0
0
0
0
0
0
0
0
0
0
0
0
0
0
0
0
0
0
0
0
0
0
0
0
0
0
0
0
0
0
0
0
0
0
0
0
0
0
0
0
0
0
0
0
0
0
0
0
0
0
0
0
0
0
0
0
0
0
0
0
0
0
0
0
0
0
0
0
0
0
0
0
0
0
0
0
0
0
0
0
0
0
0
0
0
0
0
0
0
0
0
0
0
0
0
0
0
0
0
0
0
0
0
0
0
0
0
0
0
0
0
0
0
0
0
0
0
0
0
0
0
0
0
0
0
0
0
-2.16469e-41
2.30365e-41
1.67857e-36
-1.97291e-35
1.59163e-32
-1.18281e-31
6.69065e-31
3.53625e-29
1.24083e-28
2.16545e-28
1.46929e-28
3.09055e-28
3.02814e-28
-5.40348e-29
5.82107e-28
2.69517e-27
2.38943e-27
-6.70497e-26
-2.52964e-25
-1.8185e-25
1.19548e-25
2.58644e-25
2.74833e-26
1.93329e-25
1.175e-24
4.25434e-25
1.39652e-25
-2.36518e-24
-3.03286e-24
-4.22235e-24
-4.27143e-24
-3.74133e-24
-2.89784e-24
-1.98015e-25
5.11033e-25
1.19083e-24
8.33992e-25
6.72396e-25
5.64753e-25
4.44873e-25
3.37424e-25
2.0638e-25
1.31872e-25
5.91376e-26
3.24424e-26
1.8011e-26
4.32595e-27
5.02464e-28
-4.46492e-28
-3.3151e-27
-2.08072e-27
-1.34471e-27
-1.00818e-27
-6.78972e-28
-4.1825e-28
-2.33076e-28
-1.36719e-28
-4.75846e-29
-2.52304e-29
-4.53018e-30
-1.42442e-31
8.40709e-31
1.46738e-30
1.05855e-30
5.79494e-31
4.69503e-31
2.84096e-31
1.52025e-31
8.41945e-32
4.72232e-32
2.34854e-32
1.16912e-32
5.76815e-33
2.3896e-33
1.17003e-33
4.26728e-34
1.82263e-34
9.04438e-35
1.60443e-35
2.32819e-36
-4.02051e-36
-2.0472e-36
-1.0801e-36
-5.4065e-37
-3.13495e-37
-1.93223e-37
-1.44649e-37
-5.45999e-38
2.2494e-34
0
0
0
0
0
0
0
0
0
0
0
0
0
0
0
0
0
0
0
0
0
0
0
0
0
0
0
0
0
0
0
0
0
0
0
0
0
0
0
0
0
0
0
0
0
0
0
0
0
0
0
0
0
0
0
0
0
0
0
0
0
0
0
0
0
0
0
0
0
0
0
0
0
0
0
0
0
0
0
0
0
0
0
0
0
0
0
0
0
0
0
0
0
0
0
0
0
0
0
0
0
0
0
0
0
0
0
0
0
0
0
0
0
0
3.34202e-131
0
-3.53905e-125
-1.07943e-126
6.86845e-120
8.58701e-120
4.42857e-120
5.54119e-120
2.54673e-120
3.54971e-120
-1.07454e-118
-1.9176e-118
1.294e-116
-5.52779e-116
1.02016e-114
-9.89455e-116
6.23041e-114
-1.9008e-114
1.17444e-111
1.03885e-111
3.36425e-111
3.82106e-111
2.1624e-111
2.4195e-111
3.49095e-111
-5.53166e-111
3.32186e-110
2.94828e-110
4.56824e-110
4.25198e-110
1.7751e-109
1.55251e-109
1.17725e-108
7.368e-111
-1.10829e-104
-1.38805e-104
-7.03146e-105
-8.80868e-105
-4.51878e-105
-5.7894e-105
-1.57843e-104
-2.01453e-104
7.32406e-104
2.92892e-103
1.9803e-99
1.21834e-100
8.67701e-97
1.04222e-96
5.3844e-97
6.30565e-97
4.34864e-96
-1.32688e-95
1.53821e-94
1.56559e-94
1.83473e-94
2.04872e-94
3.16727e-94
2.6159e-94
2.77663e-94
4.08742e-95
2.11713e-93
2.46706e-93
1.64993e-93
5.62779e-94
4.5509e-93
4.40939e-93
3.03865e-93
2.93208e-93
2.04383e-93
2.02294e-93
1.53689e-93
7.32556e-94
8.14593e-93
8.03991e-93
4.8589e-92
5.63242e-92
2.6989e-91
3.0595e-91
1.66513e-91
1.87914e-91
1.09494e-91
1.21007e-91
4.04991e-91
3.46309e-91
8.90009e-91
9.79897e-91
5.51495e-91
5.57644e-91
2.14368e-90
-5.59303e-90
1.93958e-89
1.16729e-89
1.6723e-89
6.69934e-90
1.3164e-89
4.42591e-90
1.40125e-89
-8.25217e-90
2.03687e-88
1.6836e-88
1.58181e-87
9.83448e-88
1.13193e-87
7.25561e-88
8.32574e-88
5.72702e-88
6.06991e-88
4.0001e-88
3.39413e-87
2.29626e-87
6.856e-87
7.13751e-87
4.52954e-87
4.65267e-87
3.31363e-87
1.93023e-87
5.76066e-87
4.51118e-87
5.92836e-87
5.55988e-87
6.78857e-87
5.1405e-87
5.50917e-87
8.2618e-88
7.69679e-87
4.86952e-87
1.60797e-86
4.30241e-87
1.19904e-86
4.68624e-87
1.7587e-86
1.56325e-86
1.18962e-86
1.06844e-86
8.38149e-87
6.49599e-87
2.71467e-86
2.93639e-86
1.75006e-86
1.8692e-86
1.66428e-86
-7.3407e-87
5.31061e-86
2.89621e-86
6.03135e-86
4.94422e-86
7.1039e-86
4.76819e-86
6.00462e-86
-2.34039e-87
7.55695e-86
3.31521e-86
7.74991e-86
-4.65531e-86
1.16398e-85
5.19255e-86
1.12218e-85
7.8371e-86
8.06261e-86
4.94487e-86
7.55127e-86
6.12272e-86
7.12611e-86
6.80505e-86
5.53748e-86
2.2766e-86
1.14819e-85
1.16042e-85
7.53612e-86
6.76638e-86
4.84752e-86
4.35454e-86
7.99514e-86
6.73333e-86
1.20722e-85
1.29785e-85
7.55273e-86
8.1222e-86
4.87826e-86
4.79533e-86
4.1813e-86
4.31164e-86
3.35995e-86
3.57593e-86
3.17748e-86
3.21375e-86
2.11423e-86
1.8509e-86
1.36763e-86
1.22264e-86
9.16545e-87
7.85661e-87
6.05083e-87
5.31431e-87
8.2866e-87
8.53868e-87
5.21202e-87
5.33623e-87
7.00367e-87
6.59613e-87
9.77385e-87
1.08243e-86
6.13815e-87
6.73188e-87
3.89754e-87
3.36812e-87
4.66385e-87
4.14106e-87
4.11209e-87
4.05178e-87
3.43393e-87
2.87722e-87
2.54047e-87
1.24731e-87
6.3488e-87
6.31073e-87
4.17477e-87
4.04969e-87
4.21411e-87
3.8981e-87
3.9165e-87
3.98314e-87
2.57422e-87
2.59562e-87
1.78946e-87
1.50351e-87
4.60525e-87
4.97185e-87
2.87059e-87
3.05229e-87
1.91038e-87
1.48125e-87
2.08988e-87
1.84762e-87
1.72469e-87
1.68558e-87
1.24556e-87
1.22817e-87
8.32588e-88
7.71496e-88
1.02908e-87
1.13797e-87
6.58985e-88
6.69296e-88
5.56147e-88
5.7978e-88
3.63695e-88
3.80762e-88
2.2933e-88
2.39909e-88
1.52426e-88
1.61541e-88
1.33439e-88
1.48933e-88
1.17161e-88
1.21644e-88
7.07495e-89
7.34306e-89
1.98778e-88
9.26899e-89
-7.2732e-84
4.16927e-85
-3.46575e-81
-3.77782e-81
-7.66212e-81
-9.22633e-81
-4.90322e-81
-5.86159e-81
-3.182e-80
1.40829e-80
-1.49932e-77
4.24668e-78
2.97987e-75
2.68308e-75
7.90756e-73
9.41347e-73
5.44828e-73
1.42955e-72
6.35162e-72
-3.03875e-71
-5.18823e-70
-9.82716e-72
-1.54966e-68
-1.28541e-32
-2.474e-30
8.48325e-29
-1.70207e-26
8.34349e-25
4.56199e-23
7.32202e-22
5.38915e-21
2.17794e-20
5.82823e-20
1.04004e-19
1.44616e-19
1.7653e-19
1.99401e-19
2.1938e-19
2.43618e-19
2.77066e-19
2.99702e-19
2.89342e-19
2.44438e-19
1.80131e-19
1.15934e-19
6.52806e-20
3.36234e-20
1.54189e-20
6.36603e-21
2.4134e-21
7.69923e-22
1.92369e-22
3.56861e-23
4.37488e-24
3.25422e-25
9.63419e-27
-2.05553e-28
-2.00874e-29
1.06101e-31
1.07163e-32
-1.70798e-34
4.48205e-36
-5.44429e-38
-4.48771e-41
-1.55089e-41
2.21783e-43
-1.94994e-45
-4.67899e-48
-7.70237e-51
1.33003e-55
-4.08367e-58
8.51748e-62
-6.97804e-05
3.2995e-05
-3.92268e-05
2.10019e-05
5.44625e-05
-2.92713e-05
-7.89733e-07
-5.94045e-05
-4.10704e-05
-5.4392e-05
-7.2686e-05
9.88039e-06
-6.54519e-05
1.77124e-05
-1.09994e-05
-4.72306e-05
-2.98691e-05
-0.000311019
-0.00020092
-0.000663915
-0.000592801
-0.000914477
-0.00117114
-0.000707386
-0.00178507
0.000460318
-0.00212728
0.00319414
-0.00177175
0.00797369
-0.000678976
0.0150234
0.0019998
0.0247501
0.00575202
0.0377839
0.0112522
0.0541139
0.018088
0.0938858
0.154873
0.132254
0.154092
0.169437
0.142665
0.158587
0.147607
0.154772
0.149509
0.159369
0.14939
0.160078
0.146854
0.158546
0.145625
0.15623
0.145815
0.155916
0.147896
0.157245
0.148512
0.1587
0.147602
0.158498
0.146773
0.157434
0.147616
0.157259
0.147154
0.157747
0.147098
0.1576
0.146106
0.156231
0.15518
0.164008
0.109997
0.143592
1.36596e-07
3.37224e-06
-1.86154e-05
8.21389e-07
-0.000136235
-0.00089449
-0.000668893
0.00429698
0.0177161
0.0427133
3.73389e-05
3.80249e-05
3.01809e-05
3.28892e-05
3.14674e-05
3.02899e-05
3.22842e-05
3.59353e-05
3.38933e-05
3.13818e-05
7.4984e-35
0
0
0
0
0
0
0
0
0
0
-6.38899e-44
-1.63345e-41
9.6699e-40
-3.77342e-36
9.94866e-35
3.24954e-33
2.25586e-32
-1.64447e-30
8.10486e-29
1.31333e-28
1.7656e-28
1.22117e-28
2.71657e-28
2.23918e-28
5.13955e-28
7.04742e-28
1.9412e-27
-4.00997e-26
-1.38895e-25
-1.61513e-25
-3.32665e-26
3.17552e-25
4.54547e-25
3.67251e-25
1.0093e-24
1.16574e-24
6.48355e-25
4.89211e-25
-2.56866e-24
-4.03656e-24
-5.02423e-24
-4.7659e-24
-3.52858e-24
-2.01866e-24
-1.64695e-25
4.85908e-25
1.03121e-24
6.85377e-25
6.00092e-25
4.76215e-25
3.77078e-25
3.04187e-25
1.60236e-25
1.11084e-25
4.03339e-26
2.76779e-26
1.39704e-26
3.91692e-27
3.65808e-28
-1.18062e-27
-2.61271e-27
-1.58627e-27
-1.17903e-27
-8.24741e-28
-5.5666e-28
-3.10969e-28
-1.77989e-28
-1.01693e-28
-3.35229e-29
-2.00872e-29
-6.78037e-31
-3.70361e-31
7.24701e-31
1.05371e-30
7.75912e-31
4.47264e-31
3.7561e-31
2.03901e-31
1.13378e-31
6.32222e-32
3.46221e-32
1.65451e-32
8.31089e-33
3.96683e-33
1.76082e-33
8.10835e-34
2.93605e-34
1.34805e-34
5.57599e-35
1.19351e-35
1.98037e-36
-3.06317e-36
-1.5101e-36
-7.62186e-37
-4.41884e-37
-2.94898e-37
-1.43082e-37
-1.01091e-37
0
-1.25111e-36
0
-1.76584e-32
2.87969e-31
-1.9276e-68
5.2652e-31
1.65832e-29
-2.2605e-27
-6.66546e-27
7.98322e-24
2.06572e-22
2.09234e-21
1.16419e-20
3.71457e-20
8.05646e-20
1.25333e-19
1.6114e-19
1.89032e-19
2.09347e-19
2.2967e-19
2.60225e-19
2.90614e-19
2.98799e-19
2.70321e-19
2.137e-19
1.4729e-19
8.90497e-20
4.76522e-20
2.30621e-20
1.00832e-20
3.99822e-21
1.40694e-21
4.04105e-22
8.62948e-23
1.37851e-23
1.2861e-24
6.50569e-26
6.01987e-28
-8.89417e-29
-2.07925e-30
7.72396e-32
3.78993e-34
-8.89059e-36
4.17402e-37
-1.14352e-38
7.76447e-41
-1.28056e-42
-2.05676e-45
1.7456e-46
2.53878e-50
4.05996e-53
-1.36102e-56
7.30056e-61
-9.20676e-06
2.43711e-65
0.0323594
0.0706169
0.0862282
6.39781e-06
-1.20265e-05
-2.77532e-06
1.22605e-05
-0.000462259
-0.00105497
0.000945753
0.00990486
0.0283848
8.86734e-06
0.0591119
4.57271e-05
3.22963e-05
3.00468e-05
3.14906e-05
3.12648e-05
3.15946e-05
3.2031e-05
3.14771e-05
5.49744e-05
-2.2258e-05
0
0
0
0
0
0
0
0
0
0
-5.68364e-42
-1.95175e-39
-6.76276e-36
1.26089e-34
5.15095e-32
-7.55124e-31
-1.05182e-29
-9.09444e-29
-9.51356e-29
-1.16337e-29
5.43641e-30
-7.18708e-29
-1.1563e-28
-1.34919e-27
4.79806e-28
1.96642e-26
1.15334e-25
3.31381e-25
-9.11597e-26
-6.31572e-25
-9.28041e-25
-5.52491e-25
-1.28776e-24
-3.16797e-24
-1.53534e-24
-1.11811e-24
-6.76476e-27
2.1946e-24
5.12465e-24
4.90941e-24
3.81838e-24
3.26149e-24
-1.07817e-24
5.98758e-25
4.53657e-25
1.2236e-25
1.79687e-25
-1.63194e-25
-6.18561e-26
-3.50131e-26
-2.30976e-26
-3.49777e-26
-6.60298e-27
-3.06616e-26
-1.21927e-26
-4.15024e-27
-6.90795e-27
-3.98964e-27
8.51112e-28
-1.49293e-27
-6.69452e-28
-3.35711e-28
-3.3017e-28
-1.50097e-28
-7.55556e-29
-4.17188e-29
-4.06451e-29
1.58707e-30
-2.99867e-30
7.53752e-30
1.95942e-30
1.85219e-30
1.64093e-30
9.45689e-31
2.75722e-31
3.23277e-31
1.13222e-31
5.98145e-32
3.94042e-32
1.89585e-32
1.00153e-32
5.06345e-33
2.32257e-33
1.07092e-33
4.60333e-34
1.16496e-34
4.90456e-35
2.45393e-35
-4.89818e-36
-5.2998e-36
-6.04327e-36
-3.05201e-36
-1.23308e-36
-6.68136e-37
-3.95688e-37
-1.17797e-37
-8.34538e-38
2.1103e-37
9.56016e-29
-3.26448e-26
2.06876e-24
9.75889e-23
1.33773e-21
9.10821e-21
3.35028e-20
8.24352e-20
1.37232e-19
1.82221e-19
2.17708e-19
2.43449e-19
2.65977e-19
2.99503e-19
3.38382e-19
3.5929e-19
3.34853e-19
2.72881e-19
1.93768e-19
1.20713e-19
6.57925e-20
3.28721e-20
1.45499e-20
5.84237e-21
2.12927e-21
6.41357e-22
1.44979e-22
2.43696e-23
2.43148e-24
1.41023e-25
1.98874e-27
-1.65681e-28
-5.54104e-30
1.47438e-31
1.51009e-33
-3.29739e-35
1.0796e-36
-2.57925e-38
1.99422e-40
-3.38477e-42
1.88196e-45
3.78394e-46
7.67481e-50
8.08466e-53
-2.72128e-56
1.06078e-60
9.71946e-65
-1.06451e-05
6.09565e-06
-1.51823e-05
5.1148e-05
-0.000216352
-0.00131157
-0.00202501
0.00039604
0.00863805
0.0267979
4.61406e-06
-9.12383e-06
-7.2573e-06
-5.46103e-06
-7.17228e-06
-6.67972e-06
-6.77728e-06
-3.01174e-06
-1.14593e-05
5.68583e-06
0
0
0
0
0
0
0
0
0
-2.28687e-41
8.50764e-41
1.87879e-36
6.04409e-35
6.66886e-33
4.16362e-31
-3.41819e-30
-1.36289e-28
-1.86918e-28
8.55095e-29
-8.42038e-30
2.12878e-29
-1.99339e-29
5.21426e-28
-1.74418e-27
1.38569e-27
-1.98341e-26
2.00931e-25
3.50352e-25
-1.54029e-26
-1.05217e-24
-1.37194e-25
-6.7024e-26
-8.51507e-25
-5.83455e-25
-3.88078e-24
2.97901e-25
1.88357e-24
5.69127e-24
3.35657e-24
5.86095e-24
2.89267e-24
-2.83762e-25
1.16802e-24
3.0556e-25
-6.87768e-26
1.35819e-25
-2.43459e-25
-1.48857e-25
-1.13631e-25
-5.12173e-26
-3.47779e-26
-1.79002e-26
-2.36242e-26
-2.67024e-26
-3.79809e-27
-1.07777e-26
-4.72613e-27
1.08767e-27
-1.72037e-27
-1.03562e-27
-1.46392e-28
-3.05766e-28
-2.11073e-28
-1.32004e-28
-5.20849e-29
-4.5971e-29
-1.44441e-30
6.39998e-31
4.49867e-30
5.94596e-30
2.61105e-30
2.47181e-30
1.2649e-30
3.82189e-31
3.8979e-31
1.71195e-31
7.35282e-32
4.75681e-32
2.74113e-32
1.40576e-32
6.85544e-33
3.20071e-33
1.30059e-33
6.91969e-34
1.73179e-34
6.51819e-35
4.0772e-35
-9.11157e-36
-7.67599e-36
-8.37301e-36
-4.24712e-36
-1.80945e-36
-8.3877e-37
-4.24014e-37
-2.14528e-37
-1.32204e-37
-2.02213e-38
1.78225e-23
4.11698e-22
3.71045e-21
1.85688e-20
5.5428e-20
1.10382e-19
1.61606e-19
2.01742e-19
2.32637e-19
2.54141e-19
2.80955e-19
3.19089e-19
3.52895e-19
3.52756e-19
3.07585e-19
2.33487e-19
1.55792e-19
9.0018e-20
4.71523e-20
2.19876e-20
9.32073e-21
3.62508e-21
1.20749e-21
3.13419e-22
6.1611e-23
8.03287e-24
6.55072e-25
2.27895e-26
-2.77332e-28
-4.26246e-29
1.28863e-32
2.46778e-32
-3.33672e-34
8.54671e-36
-8.79464e-38
-4.44065e-40
-3.06725e-41
4.83723e-43
-4.62893e-45
-1.00055e-47
-1.67835e-50
3.72105e-55
-8.83006e-58
2.10138e-61
1.66197e-68
1.41346e-05
-3.31594e-06
1.94852e-05
3.29672e-05
-0.00062816
-0.00185092
-0.00136803
0.00369068
0.0162275
0.0503186
-1.48348e-06
-8.25874e-06
-6.27286e-06
-5.88454e-06
-7.37125e-06
-6.53846e-06
-6.4306e-06
-6.74523e-06
1.49526e-05
-8.57464e-06
0
-5.40802e-30
4.0935e-26
-5.4673e-27
4.28671e-29
1.15744e-05
0
0
0
0
0
0
0
0
0
0
0
0
0
0
0
0
0
0
0
0
0
0
0
0
0
0
0
0
0
0
0
0
0
0
0
0
0
0
0
0
0
0
0
0
0
0
0
0
0
0
0
0
0
0
0
0
0
0
0
0
0
0
0
0
0
0
0
0
0
0
0
0
0
0
0
0
0
0
0
0
0
0
0
0
0
0
0
0
0
0
0
0
0
0
0
0
0
0
0
0
0
0
0
0
0
0
0
0
0
0
0
0
0
0
0
0
0
0
0
0
0
0
0
0
0
0
0
0
0
0
0
0
0
0
0
0
0
0
0
0
0
0
0
0
0
0
0
0
0
0
0
0
0
0
0
0
0
0
0
0
0
0
0
0
0
0
0
0
0
0
0
0
0
0
0
0
0
0
0
0
0
0
0
0
0
0
0
0
0
0
0
0
0
0
0
0
-6.13306e-30
6.0222e-31
1.23973e-30
8.61912e-29
0
0
0
0
0
0
0
-1.55776e-41
-1.0573e-38
9.63596e-38
-1.59263e-34
-3.5572e-32
-4.67535e-30
3.82958e-29
6.41644e-28
6.23754e-27
7.53369e-27
7.29953e-27
5.87174e-27
1.03086e-26
6.20032e-27
-6.3862e-26
4.0913e-26
1.47059e-25
-2.59653e-25
-5.68947e-24
-5.34142e-24
1.76479e-24
-1.38649e-23
-6.3193e-24
8.43994e-24
4.78119e-24
-3.30136e-23
-8.39184e-23
-1.24573e-22
-1.396e-22
-6.99876e-23
1.29034e-23
3.30956e-23
6.70725e-23
8.17699e-23
6.76866e-23
5.49332e-23
3.59628e-23
2.70009e-23
1.59389e-23
1.03255e-23
4.72817e-24
-7.47873e-26
-9.23172e-26
-5.55068e-25
-8.03368e-25
-7.0686e-25
-6.09395e-25
-4.27309e-25
-2.85463e-25
-1.5864e-25
-9.26791e-26
-5.55887e-26
-2.78965e-26
-1.36724e-26
-2.61825e-27
-6.90106e-28
-5.44298e-29
1.15052e-27
7.16417e-28
4.85166e-28
3.50815e-28
2.11642e-28
1.1569e-28
6.57168e-29
3.55461e-29
1.42838e-29
7.93278e-30
2.78911e-30
9.66469e-31
4.71709e-31
1.18917e-32
3.40824e-34
-1.72134e-32
-3.46265e-32
-1.55136e-32
-1.0833e-32
-5.5415e-33
-2.57998e-33
-1.85584e-33
-8.65245e-34
-4.36538e-34
-2.35846e-34
-1.06594e-34
-5.33548e-35
-2.37007e-35
-1.04848e-35
-3.83883e-36
-1.45004e-36
9.38048e-35
2.16311e-23
0
1.36033e-34
0
0
0
0
0
0
0
0
0
0
0
0
0
0
0
0
0
0
0
0
0
0
0
0
0
0
0
0
0
0
0
0
0
0
0
0
0
0
0
0
0
0
0
0
0
0
0
0
0
0
0
0
0
0
0
0
0
0
0
0
0
0
0
0
0
0
0
0
0
0
0
0
0
0
0
0
0
0
0
0
0
0
0
0
0
0
0
0
0
0
0
0
0
0
0
0
0
0
0
0
0
0
0
0
0
0
0
0
0
0
0
0
0
0
0
0
-2.91883e-123
2.93141e-125
5.65362e-118
7.11124e-118
2.04474e-117
-7.85165e-117
2.55654e-117
-3.3471e-117
1.66704e-115
3.61187e-116
2.49482e-113
3.03906e-113
6.14263e-112
-2.72541e-111
1.68019e-111
-1.72309e-111
1.54491e-109
1.63226e-109
1.53384e-109
1.47258e-109
1.23336e-109
8.59633e-110
3.36364e-108
3.26032e-108
4.31171e-108
4.27755e-108
5.09077e-108
-3.98508e-108
2.6122e-107
2.54564e-107
1.41647e-106
1.06993e-106
-5.97858e-103
-7.47044e-103
-3.73635e-103
-4.87398e-103
-2.56525e-102
-3.22826e-102
-1.58076e-102
-2.14986e-102
-4.45262e-100
4.30727e-101
-1.5532e-97
-2.798e-97
3.79199e-95
4.32686e-95
6.16723e-95
1.46975e-95
1.06479e-92
1.19562e-92
2.17106e-92
2.45202e-92
1.46407e-92
1.49511e-92
6.45028e-92
3.3027e-92
1.39858e-91
1.48283e-91
9.52126e-92
9.27852e-92
6.67821e-91
7.46111e-91
5.97368e-91
6.73771e-91
3.87979e-91
4.46651e-91
2.57723e-91
2.44163e-91
5.8813e-91
6.20004e-91
1.07253e-90
1.11877e-90
2.00623e-90
2.19758e-90
1.52971e-89
1.51515e-89
9.17705e-90
9.08108e-90
6.33376e-90
5.6465e-90
4.36898e-89
4.37095e-89
3.79521e-89
2.84931e-89
4.48325e-89
-7.40692e-90
1.56454e-87
1.04536e-87
2.53182e-87
1.84938e-87
2.80836e-87
-1.76204e-87
2.45061e-87
-9.46775e-88
4.65521e-87
2.68336e-87
1.49774e-86
-1.4565e-86
1.79144e-85
1.68134e-85
1.24413e-85
9.16196e-86
8.76598e-86
5.8875e-86
6.42457e-86
3.80486e-86
3.37155e-85
3.19255e-85
2.7099e-85
2.56602e-85
1.86653e-85
1.73862e-85
3.85068e-85
3.39004e-85
4.88274e-85
4.73048e-85
3.37791e-85
2.7999e-85
6.00554e-85
2.20074e-85
1.07087e-84
9.90897e-85
8.57674e-85
2.94684e-85
2.86803e-84
3.12187e-84
1.85074e-84
1.8857e-84
1.16425e-84
1.16666e-84
7.52029e-85
6.92624e-85
6.66126e-85
6.36467e-85
9.34019e-85
9.57133e-85
6.7272e-85
5.65671e-85
4.33129e-84
3.57534e-84
5.9373e-84
5.21441e-84
4.14003e-84
3.2647e-84
6.26638e-84
2.02711e-84
1.13657e-83
1.02208e-83
9.462e-84
1.92414e-84
2.06156e-83
2.00718e-83
1.38609e-83
1.28191e-83
9.13156e-84
8.29291e-84
7.32457e-84
6.1142e-84
5.12e-84
4.14183e-84
3.623e-84
2.86092e-84
7.80404e-84
7.97615e-84
5.20037e-84
4.42507e-84
4.84858e-84
4.89889e-84
3.05396e-84
2.91056e-84
5.90061e-84
5.97876e-84
4.16974e-84
4.29497e-84
2.6406e-84
2.8159e-84
2.60432e-84
2.75263e-84
1.80377e-84
1.85512e-84
1.22409e-84
8.59251e-85
1.52092e-84
1.4855e-84
1.54079e-84
1.6918e-84
9.60987e-85
1.05181e-84
8.20978e-85
9.4456e-85
5.06981e-85
5.61541e-85
4.11265e-85
4.65205e-85
2.49988e-85
2.77671e-85
4.20617e-85
4.41686e-85
3.15187e-85
3.31095e-85
2.05207e-85
2.13585e-85
2.80716e-85
2.62952e-85
3.08673e-85
3.03104e-85
2.01352e-85
1.86615e-85
2.35073e-85
9.89849e-86
2.8923e-85
2.42747e-85
2.68265e-85
1.58621e-85
1.84667e-85
1.15334e-85
2.13916e-85
1.49256e-85
1.46379e-85
1.03489e-85
9.9036e-86
7.20391e-86
1.1172e-85
9.57395e-86
1.45377e-85
1.50336e-85
9.2873e-86
9.41863e-86
1.5496e-85
1.55321e-85
1.34124e-85
1.39286e-85
8.2425e-86
8.72768e-86
5.77327e-86
5.52751e-86
4.53306e-86
4.80833e-86
2.83943e-86
2.88067e-86
2.78374e-86
2.79555e-86
2.14282e-86
2.18669e-86
1.31517e-86
1.38558e-86
8.77847e-87
9.64594e-87
5.85318e-87
6.34501e-87
3.69865e-87
3.51808e-87
5.04036e-87
5.47283e-87
3.17899e-87
3.42622e-87
1.08409e-86
3.1664e-87
-1.08247e-81
2.84656e-83
-4.94489e-79
-5.79254e-79
-3.55687e-79
-1.99249e-79
-3.1943e-79
-9.04227e-80
-9.59105e-78
-5.22263e-78
1.73573e-76
1.7169e-76
1.09312e-73
1.89663e-74
5.65615e-71
6.98449e-71
5.40697e-70
5.73884e-70
3.27426e-68
3.93637e-68
1.96982e-68
1.43139e-67
2.79686e-68
6.02637e-26
9.17818e-06
3.57082e-05
2.89153e-05
-3.83644e-26
-7.18055e-26
5.05382e-29
-1.34103e-29
1.24035e-28
2.54274e-24
2.77869e-25
6.19597e-24
-6.59389e-27
-1.59765e-26
4.9308e-22
4.43475e-21
2.21306e-20
6.60442e-20
1.31513e-19
1.92445e-19
2.402e-19
2.77538e-19
3.02188e-19
3.34769e-19
3.7958e-19
4.1989e-19
4.19967e-19
3.6543e-19
2.77254e-19
1.8518e-19
1.07133e-19
5.6074e-20
2.61353e-20
1.10697e-20
4.29803e-21
1.43074e-21
3.72907e-22
7.3294e-23
9.59277e-24
7.85421e-25
2.77099e-26
-3.08774e-28
-5.06629e-29
-2.58815e-32
2.96994e-32
-3.74601e-34
9.62208e-36
-9.96689e-38
-5.94109e-40
-3.51452e-41
5.56466e-43
-5.34037e-45
-1.14154e-47
-1.91359e-50
4.50648e-55
-1.01504e-57
2.3083e-61
1.30448e-64
3.82716e-64
5.78418e-67
-2.50043e-05
-2.14413e-05
0.056849
4.06128e-05
-6.60177e-05
-3.65827e-06
-7.5192e-05
-3.79671e-05
-8.14542e-06
-1.0666e-05
9.74285e-05
8.26752e-05
0.000152439
0.00018401
4.63637e-05
0.000188959
-0.00021872
9.42519e-05
-0.000516673
-0.00012119
-0.000704149
-0.000318162
-0.000660231
-0.000473324
-0.000208387
-0.00051079
0.000711334
-0.000297805
0.00204621
0.000112734
0.00366009
0.000482312
0.00553357
0.00112997
0.00716266
0.00149097
0.00885986
0.00136077
0.0915476
0.201556
0.185458
0.20957
0.181694
0.19521
0.187127
0.197006
0.187788
0.20053
0.185473
0.19934
0.182919
0.196523
0.182771
0.195051
0.184357
0.196048
0.186099
0.197654
0.185592
0.198666
0.184631
0.197747
0.184516
0.197229
0.184902
0.197604
0.184957
0.197638
0.182519
0.195624
0.192615
0.201292
0.17822
0.147536
0.201492
0
-4.88528e-05
0.000117575
-1.23996e-05
-0.00058435
-0.000577961
0.00108194
0.00440748
0.00845868
0.0230996
-5.33507e-05
-1.23162e-05
-5.45745e-05
-1.58055e-05
-1.50964e-06
-1.71324e-05
-1.76195e-05
-1.67339e-05
-1.67788e-05
-1.70882e-05
-1.83172e-05
-1.57881e-05
-1.5934e-05
3.31235e-06
0
0
0
5.11686e-05
8.09883e-05
-6.49735e-06
0.160786
0.196213
0.111643
-2.13834e-06
1.3492e-05
0.0129495
0.000207457
-5.97985e-06
-1.98095e-06
1.52995e-34
0
0
-3.01386e-32
-7.00314e-29
0
-2.00256e-32
0
0
0
0
0
0
0
-2.94899e-39
4.88674e-39
1.61024e-34
-7.39094e-33
1.3299e-30
-3.22014e-29
1.43642e-28
5.17057e-27
9.37801e-27
6.51927e-27
6.54555e-27
1.09563e-26
9.42869e-27
-8.06512e-27
-1.51372e-26
2.19057e-25
2.51045e-24
-2.80116e-24
-3.21339e-24
-5.3293e-24
-9.35525e-24
-1.51391e-23
2.7463e-24
9.31618e-24
-2.79978e-23
-8.62829e-23
-9.089e-23
-1.26407e-22
-1.16828e-22
-1.10099e-23
1.85294e-23
5.31775e-23
8.86814e-23
7.50728e-23
5.85331e-23
4.24902e-23
3.1052e-23
1.82116e-23
1.11501e-23
5.83636e-24
1.57601e-24
-5.94796e-26
-7.08562e-25
-9.67571e-25
-7.40118e-25
-7.17571e-25
-5.12357e-25
-3.47223e-25
-2.10499e-25
-1.1601e-25
-7.04246e-26
-3.47287e-26
-1.86305e-26
-6.18391e-27
-1.73983e-27
-3.08266e-28
8.92926e-28
9.35997e-28
5.76611e-28
4.44733e-28
2.80427e-28
1.54333e-28
8.81874e-29
4.68991e-29
2.07602e-29
1.04803e-29
3.9858e-30
1.4103e-30
6.30647e-31
1.74812e-31
6.26783e-33
-3.23271e-32
-4.55167e-32
-2.41859e-32
-1.53587e-32
-7.69839e-33
-3.8466e-33
-2.36331e-33
-1.27122e-33
-6.60808e-34
-3.50009e-34
-1.58892e-34
-7.8484e-35
-3.55222e-35
-1.59853e-35
-6.48894e-36
-2.2678e-36
-1.70108e-36
0
0
0
0
-0.00138563
1.17806e-22
1.5973e-21
1.08501e-20
4.00025e-20
9.81893e-20
1.63554e-19
2.16989e-19
2.59403e-19
2.90287e-19
3.16505e-19
3.56667e-19
4.02656e-19
4.27715e-19
3.97948e-19
3.2432e-19
2.29946e-19
1.43685e-19
7.83115e-20
3.90772e-20
1.72623e-20
6.93652e-21
2.52871e-21
7.61245e-22
1.72309e-22
2.89463e-23
2.90695e-24
1.70063e-25
2.48548e-27
-1.95023e-28
-6.75577e-30
1.71346e-31
1.90807e-33
-3.94701e-35
1.27399e-36
-3.01442e-38
2.29729e-40
-3.98827e-42
2.75369e-45
4.33995e-46
8.72578e-50
9.04753e-53
-3.04237e-56
1.03519e-60
0
-5.48135e-06
0.0187343
0.047473
2.88179e-06
0
2.27205e-05
0.000125873
-0.000323196
-0.000796562
-1.68038e-06
0.00265009
0.00642163
-0.0013748
0.0121965
1.25101e-06
-1.77097e-05
-1.9548e-05
-1.66494e-05
1.2949e-06
1.14754e-06
-1.70396e-05
-1.68737e-05
-1.78646e-05
-1.8581e-05
-2.98647e-05
6.75377e-06
4.27289e-06
0
1.47806e-36
0
-3.36807e-06
-6.5787e-06
-5.41285e-09
1.39533e-06
1.43998e-06
0.000653471
0.000429116
-0.000285586
-0.000559803
-0.00022232
0.000151756
4.74165e-61
-2.15518e-57
1.1959e-54
-4.00107e-50
-2.45396e-47
-1.26972e-44
1.16946e-42
-6.67421e-41
-2.21576e-39
-1.34081e-37
1.72002e-35
-6.70696e-34
6.65305e-32
-5.5548e-31
-1.02141e-28
-2.81527e-28
6.07809e-26
1.5197e-24
1.75624e-23
1.22335e-22
6.02593e-22
2.15396e-21
6.21573e-21
1.58945e-20
3.69842e-20
7.6951e-20
1.45012e-19
2.42556e-19
3.55053e-19
4.4896e-19
4.99729e-19
4.87004e-19
4.32197e-19
3.82253e-19
3.48498e-19
3.15815e-19
2.70054e-19
2.11333e-19
1.35102e-19
5.99547e-20
1.25083e-34
-1.56535e-36
-2.78851e-36
-9.59838e-36
-2.21978e-35
-5.02341e-35
-1.04936e-34
-2.40182e-34
-4.18275e-34
-8.41435e-34
-1.89642e-33
-2.65016e-33
-5.69088e-33
-1.20948e-32
-2.47942e-32
-5.60122e-32
-7.45496e-32
-1.10836e-31
-2.56107e-31
-1.0457e-31
-3.24596e-31
3.83267e-31
3.45328e-30
4.45148e-30
1.70511e-29
3.55283e-29
4.81303e-29
1.27273e-28
1.90324e-28
1.85772e-28
4.34755e-28
7.1202e-28
1.39069e-28
4.44926e-28
1.2699e-27
9.2977e-28
2.44919e-27
-4.68731e-27
1.04879e-27
7.66275e-27
-4.09579e-26
-1.0733e-25
-5.35464e-26
-3.20017e-25
-4.71586e-25
-8.10693e-25
-1.48696e-24
-2.28848e-24
-2.97248e-24
-6.25348e-24
-7.00617e-24
-9.32138e-24
-1.62599e-23
-2.45637e-23
-1.703e-23
-3.95999e-23
-6.82263e-23
-3.12927e-23
-9.59627e-23
6.2633e-23
1.15355e-22
3.43102e-38
-8.59585e-42
2.18164e-22
7.40139e-23
1.15124e-22
7.46282e-23
-1.77653e-23
-1.98114e-23
1.98636e-23
1.22872e-23
1.31167e-23
4.99092e-24
1.14889e-23
-3.78934e-25
-2.09883e-25
2.79179e-25
-4.16964e-27
-5.49907e-27
-3.13075e-27
-2.06311e-27
-1.98487e-27
-5.85587e-27
-3.33193e-27
-2.4982e-28
1.83785e-29
-8.62885e-32
8.95084e-34
-2.20326e-06
-3.04209e-06
3.83974e-06
5.59402e-07
1.6396e-06
1.77743e-06
1.66633e-06
0.0056187
8.02433e-05
0.000928824
2.62916e-05
-0.000585802
-0.000471654
1.2504e-06
1.02092e-60
-6.10184e-56
1.79995e-52
2.32394e-49
9.53057e-46
2.20098e-44
-1.05483e-41
5.7137e-40
-6.5938e-38
3.11036e-36
-1.11481e-34
5.70324e-33
3.09086e-31
-1.61633e-29
-3.47821e-28
6.77726e-27
3.49591e-25
5.36857e-24
4.97949e-23
2.8312e-22
1.176e-21
3.78701e-21
1.01247e-20
2.44604e-20
5.40226e-20
1.07029e-19
1.91849e-19
2.97593e-19
4.06541e-19
4.80489e-19
4.99117e-19
4.61148e-19
4.0427e-19
3.63484e-19
3.33645e-19
2.94715e-19
2.41484e-19
1.74075e-19
9.48264e-20
0
4.69981e-23
-7.97439e-37
-1.14142e-36
-5.31223e-36
-1.51709e-35
-3.33377e-35
-7.89323e-35
-1.58356e-34
-3.60075e-34
-6.51943e-34
-1.27451e-33
-2.30684e-33
-3.96967e-33
-8.78141e-33
-2.20378e-32
-3.68539e-32
-7.34886e-32
-1.18818e-31
-1.74604e-31
-1.48173e-31
-1.75831e-31
-4.27399e-31
7.7748e-31
3.83332e-30
8.2548e-30
2.21362e-29
3.8693e-29
7.45449e-29
1.49554e-28
1.95474e-28
2.99129e-28
5.32634e-28
1.79471e-28
5.61496e-28
9.88682e-28
-3.06714e-27
3.77056e-28
4.62213e-27
-4.47948e-27
7.32114e-27
-2.46984e-26
-7.39775e-26
-6.75947e-26
-3.58499e-25
-2.28381e-25
-4.9615e-25
-1.14566e-24
-1.74323e-24
2.35937e-27
-2.62228e-24
-8.6693e-24
-1.06042e-23
-8.55077e-24
-1.83976e-23
-2.52217e-23
-2.98199e-23
-4.92381e-23
-5.86481e-23
-5.21068e-23
3.97708e-23
9.02945e-24
1.37557e-22
1.39277e-22
1.51886e-22
8.21476e-23
-2.02054e-23
-5.92108e-23
-1.8786e-23
4.19275e-23
1.20536e-24
6.73612e-24
8.57946e-24
-2.04458e-24
-5.47841e-26
-6.21974e-26
-1.65481e-26
-5.22091e-27
-7.1129e-28
-1.6534e-27
-1.51972e-27
7.48128e-28
0
-1.17032e-26
-5.63884e-28
-1.29803e-29
-3.66676e-30
-6.16579e-33
2.11802e-34
-4.09107e-38
-3.46552e-39
0
0
0
0
0
0
0
1.78027e-20
2.84926e-21
2.36862e-22
9.28297e-22
7.78106e-21
3.4343e-20
8.06023e-05
0.000140058
8.62138e-06
2.60812e-06
1.79734e-06
1.52152e-06
1.66602e-06
0
0
0
0
0
0
0
0
0
0
0
0
0
0
0
0
0
0
0
0
0
0
0
0
0
0
0
0
0
0
0
0
0
0
0
0
0
0
0
0
0
0
0
0
0
0
0
0
0
0
0
0
0
0
0
0
0
0
0
0
0
0
0
0
0
0
0
0
0
0
0
0
0
0
0
0
0
0
0
0
0
0
0
0
0
0
0
0
0
0
0
0
0
0
0
0
0
0
0
0
0
0
0
0
0
0
0
0
0
0
0
0
0
0
0
0
0
0
0
0
0
0
0
0
0
0
0
0
0
0
0
0
0
0
0
0
0
0
0
0
0
0
0
0
0
0
0
0
0
0
0
0
0
0
0
0
0
0
0
0
0
0
0
0
0
0
0
0
0
0
0
0
0
0
0
0
0
0
0
0
0
0
0
0
0
0
0
0
0
0
1.41597e-30
-1.66119e-28
2.13307e-20
4.98308e-05
0
0
0
0
0
0
0
0
0
3.34839e-25
-1.45617e-21
0
-2.22233e-37
0
0
1.31288e-35
5.77084e-07
1.35262e-32
-4.59732e-32
4.03186e-28
-1.00484e-27
2.80589e-26
1.33416e-25
-2.43322e-25
-6.51681e-26
0
0
2.85241e-25
2.6211e-25
2.7847e-25
3.28e-25
2.75133e-25
-6.31912e-25
-4.13574e-25
1.40284e-23
5.00038e-23
1.16072e-22
5.65515e-23
-2.26173e-22
-5.34915e-22
-2.12554e-22
-1.25948e-22
-6.85254e-22
-9.80595e-22
-1.79897e-21
-2.0708e-21
-2.11815e-21
-9.1574e-36
-5.02061e-35
6.97778e-22
2.63093e-21
3.06203e-21
2.97174e-21
2.44474e-21
1.25943e-21
6.59239e-22
3.46437e-22
1.49329e-23
-8.93962e-24
-1.81642e-22
-1.51219e-22
-1.82279e-22
-1.50742e-22
-9.72822e-23
-6.42595e-23
-3.7241e-23
-2.38388e-23
-8.30349e-24
-4.80007e-24
-2.03143e-24
3.89816e-25
6.88637e-25
6.41393e-25
4.31096e-25
3.73122e-25
2.54942e-25
1.50509e-25
8.9613e-26
4.04271e-26
2.25195e-26
9.89343e-27
4.15635e-27
1.70729e-27
-1.92317e-28
-1.52077e-28
-1.03506e-28
-1.6796e-28
-1.05811e-28
-7.1447e-29
-3.85414e-29
-2.04723e-29
-1.27664e-29
-6.27977e-30
-3.00478e-30
-1.61858e-30
-7.46181e-31
-3.40786e-31
-1.59366e-31
-6.81949e-32
-3.04883e-32
-1.23938e-32
-5.29508e-33
-2.38441e-33
-1.10234e-33
-2.81545e-34
-1.19965e-34
-5.36556e-35
1.94148e-35
1.46223e-34
0
0
0
0
0
0
0
0
0
0
0
0
0
0
0
0
0
0
0
0
0
0
0
0
0
0
0
0
0
0
0
0
0
0
0
0
0
0
0
0
0
0
0
0
0
0
0
0
0
0
0
0
0
0
0
0
0
0
0
0
0
0
0
0
0
0
0
0
0
0
0
0
0
0
0
0
0
0
0
0
0
0
0
0
0
0
0
0
0
0
0
0
0
0
0
0
0
0
0
0
0
0
0
0
0
0
0
0
0
0
0
0
0
0
-8.00086e-125
0
1.2208e-120
1.56044e-120
2.00411e-116
4.29956e-119
2.8145e-113
3.47822e-113
1.80207e-113
2.14901e-113
1.47676e-113
2.17635e-113
5.16936e-111
2.6533e-111
1.15934e-108
1.1031e-108
1.06267e-108
-2.51601e-109
1.11675e-107
1.12502e-107
1.69352e-107
-3.28015e-107
2.10283e-107
-3.01396e-107
3.78548e-106
3.83797e-106
4.07118e-106
-2.90132e-106
4.24728e-105
3.84779e-105
2.93721e-105
2.46597e-105
6.48834e-105
-9.6149e-106
-6.73184e-101
-8.62426e-101
-2.24093e-100
-2.94851e-100
-9.07951e-100
-1.14133e-99
-1.63545e-99
4.0853e-99
-6.61064e-98
-9.30825e-99
-1.89701e-95
-3.73858e-95
3.38763e-93
-1.44423e-92
1.87924e-92
-6.42005e-92
9.76572e-91
1.11923e-90
1.52602e-90
-2.68576e-90
2.0718e-90
-3.27925e-90
2.23757e-89
2.40224e-89
1.58904e-89
9.65155e-90
1.14703e-89
6.48302e-90
4.91421e-89
5.59012e-89
3.26568e-89
3.35459e-89
2.10026e-89
2.2299e-89
4.41823e-89
3.44325e-89
6.26743e-89
5.5665e-89
1.18488e-88
-3.08524e-88
1.33291e-88
-1.14425e-88
1.98502e-87
2.29421e-87
1.25348e-87
9.8955e-88
8.81339e-88
5.49589e-88
2.98668e-87
2.56715e-87
4.5597e-87
-9.01538e-87
1.17734e-86
-3.34229e-86
1.93693e-85
1.38335e-85
2.68749e-85
-4.07515e-85
9.95937e-85
3.01732e-85
7.88473e-85
1.99096e-85
6.45625e-85
1.42058e-85
5.57773e-84
3.2159e-84
1.0775e-83
7.75614e-84
1.17194e-83
9.18246e-84
9.4648e-84
6.16893e-85
7.48717e-84
1.1679e-84
1.82883e-83
1.6753e-83
1.45873e-83
7.30268e-85
1.12835e-83
1.82363e-84
2.77953e-83
2.29295e-83
2.49228e-83
-5.88244e-84
2.65973e-83
-2.47503e-83
9.38041e-83
7.92807e-83
7.01932e-83
2.93348e-83
1.38696e-82
1.37006e-82
9.33347e-83
8.20459e-83
8.29856e-83
7.889e-83
5.53744e-83
3.70568e-83
4.99452e-83
3.80244e-83
3.4445e-83
2.27173e-83
3.92929e-83
-4.32376e-83
4.57717e-83
-5.57747e-83
3.1477e-82
2.92522e-82
3.47462e-82
-2.82679e-82
3.11078e-82
-9.12546e-83
8.41068e-82
6.92894e-82
6.63044e-82
1.13067e-82