# Probe 0 (0.1 0.1 0.01)
# Probe 1 (0.2 0.1 0.01)
# Probe 2 (0.3 0.1 0.01)
#       Probe             0             1             2
#        Time
   0.00119048             1             0             0
   0.00258503             1   1.01466e-29   3.21356e-76
   0.00422003             1   7.23723e-26   1.21271e-66
   0.00612753             1   6.25674e-23    3.0303e-59
   0.00832115             1   1.42751e-20   2.79609e-53
    0.0109261             1    2.0849e-18   9.19475e-48
    0.0139318             1   1.52192e-16   5.54616e-43
    0.0175386             1   9.99903e-15   3.77934e-38
    0.0215963             1   2.41551e-13   2.92559e-34
    0.0263302             1   3.26387e-12   2.56934e-30
    0.0310642             1   1.78662e-11   4.06516e-28
    0.0357981             1   7.62949e-11   3.09659e-26
    0.0405321             1   2.48976e-10   1.71377e-24
    0.0436881             1   1.92604e-10   2.84452e-24
     0.046844             1   1.96342e-10    5.4886e-24
         0.05             1   2.59021e-10   1.29901e-23
    0.0533333             1   5.49677e-10   5.44636e-23
    0.0569231             1   1.93332e-09   8.90024e-22
    0.0605128             1   4.25511e-09   1.47508e-20
    0.0638034             1   5.74881e-09   7.99905e-20
     0.067094             1   9.25304e-09   5.43418e-19
    0.0703846             1   1.69379e-08   4.16059e-18
    0.0736752             1   3.24982e-08   3.33764e-17
    0.0766002             1   3.90427e-08   1.16473e-16
    0.0795252             1   5.56673e-08   4.50371e-16
    0.0824501             1   8.92275e-08   1.90544e-15
    0.0853751             1    1.5218e-07   8.72378e-15
    0.0883001             1   2.67372e-07    4.2311e-14
    0.0906401             1   2.64751e-07   9.14496e-14
    0.0929801             1   2.79929e-07   2.02355e-13
      0.09532             1   3.51154e-07   4.61147e-13
      0.09766             1   4.99297e-07   1.10284e-12
      0.09883             1   5.14976e-07      1.43e-12
          0.1             1   5.22777e-07   1.86107e-12
     0.101389             1   5.08532e-07   2.61003e-12
     0.102957             1   4.89128e-07   3.92775e-12
     0.104699             1   4.95817e-07   6.47167e-12
     0.106511             1   6.68649e-07   1.18573e-11
     0.108065             1   7.11225e-07   1.86825e-11
     0.109462             1   6.78983e-07   2.73577e-11
     0.110729             1   5.47835e-07   3.78529e-11
     0.111919             1   4.21579e-07   5.07416e-11
     0.113039             1   3.39481e-07   6.58961e-11
     0.114126             1   3.18032e-07   8.38841e-11
     0.115213             1   3.57307e-07   1.03819e-10
       0.1163             1   4.26954e-07   1.24941e-10
     0.117354             1   4.47131e-07   1.47187e-10
     0.118407             1   5.35471e-07   1.70031e-10
      0.11946             1   6.75252e-07   2.10861e-10
     0.120478             1   7.62564e-07   3.06807e-10
     0.121496             1   9.67449e-07   5.33622e-10
     0.122479             1   1.08389e-06   8.80283e-10
     0.123428             1   1.23127e-06   1.41132e-09
     0.124377             1   1.60241e-06   2.58723e-09
     0.125326             1   2.14221e-06   4.95162e-09
     0.126275             1   2.83226e-06   9.79392e-09
     0.127224             1   3.75399e-06   2.06677e-08
     0.128173             1    5.0254e-06   4.52112e-08
     0.129165             1   7.97959e-06     1.207e-07
     0.130157             1    1.0777e-05   2.58862e-07
     0.131149             1   1.42741e-05    4.8808e-07
     0.132141             1   1.88041e-05   8.67581e-07
     0.133134             1   2.50163e-05   1.54048e-06
     0.134071             1   2.72869e-05    2.3462e-06
     0.135066             1   4.22329e-05   4.59391e-06
     0.136062             1   5.55531e-05   7.44995e-06
     0.137057             1   7.16501e-05   1.14261e-05
     0.138053             1    9.3428e-05    1.7199e-05
     0.139048             1   0.000120598   2.67983e-05
     0.140044             1   0.000154009   4.22549e-05
      0.14104             1   0.000193923   6.73528e-05
     0.142035             1   0.000240729   0.000106155
     0.143031             1   0.000293162   0.000170625
     0.144026             1   0.000359532   0.000280128
     0.145022             1   0.000439494   0.000488025
     0.146018             1   0.000539194   0.000920118
     0.147013             1   0.000664508    0.00160536
     0.148009             1   0.000817802    0.00284468
     0.149004             1    0.00100046    0.00541105
         0.15             1    0.00123746     0.0155941
     0.151111             1    0.00194098     0.0637373
     0.152333             1    0.00300344       0.16418
     0.153588             1    0.00400302      0.256767
     0.154842             1    0.00495001      0.335458
     0.156096             1    0.00598319       0.24584
     0.157351             1    0.00708893     0.0955291
     0.158605             1    0.00822071     0.0347297
      0.15986             1     0.0108194     0.0393635
     0.161114             1     0.0169911     0.0552393
     0.162368             1     0.0279516     0.0743804
     0.163623             1     0.0450349      0.121621
     0.164877             1     0.0686806      0.233306
     0.166132             1      0.103202      0.403497
     0.167386             1      0.146456      0.583731
      0.16864             1      0.195334      0.711644
     0.169846             1      0.244964      0.782856
     0.171053             1      0.295546      0.829751
     0.172259             1      0.344553      0.840492
     0.173465             1      0.391117      0.881979
     0.174671             1      0.440453      0.899439
     0.175877             1      0.487882      0.909416
     0.177083             1       0.53618      0.915929
     0.178356             1      0.587263      0.921013
      0.17963             1      0.634567      0.924426
     0.180903             1      0.676177       0.92705
     0.182176             1      0.711732      0.932552
     0.183449             1      0.742937       0.93375
     0.184722             1      0.770659      0.926791
     0.185995             1      0.795281      0.910087
     0.187269             1      0.816975      0.881445
     0.188542             1      0.835742      0.846238
     0.189815             1      0.851615      0.812904
     0.191088             1      0.864648       0.79288
     0.192361             1      0.875067      0.788241
     0.193634             1      0.883053      0.799199
     0.194907             1      0.888727      0.826588
     0.196181             1      0.892326      0.860524
     0.197454             1      0.894007      0.894113
     0.198727             1      0.893976      0.924381
          0.2             1      0.892505      0.950589
     0.201389             1      0.888627      0.977728
     0.202819             1      0.882984      0.989097
     0.204248             1      0.876211      0.991698
     0.205724             1      0.867733      0.993567
       0.2072             1       0.85773      0.995296
     0.208676             1      0.845875      0.996465
     0.210152             1      0.831624      0.997221
     0.211628             1      0.814871      0.997912
     0.213104             1      0.796403      0.998482
     0.214579             1      0.774489      0.998958
     0.215996             1       0.75022      0.999297
     0.217413             1      0.723132      0.999478
      0.21883             1      0.691166      0.999671
     0.220185             1      0.655982      0.999797
      0.22154             1      0.618185      0.999869
     0.222896             1      0.579001      0.999905
     0.224251             1      0.536315      0.999972
     0.225606             1      0.493092       0.99997
      0.22689             1      0.454103      0.999982
     0.228174             1      0.417432      0.999986
     0.229458             1      0.382476      0.999989
     0.230742             1       0.34868      0.999988
     0.232025             1      0.315755      0.999988
     0.233309             1      0.284117      0.999988
     0.234593             1      0.253826      0.999988
     0.235877             1      0.225357      0.999989
     0.237161             1      0.199111      0.999989
     0.238328             1      0.177523      0.999993
     0.239495             1      0.157975      0.999994
     0.240663             1      0.137427      0.999995
      0.24183             1      0.111631      0.999995
     0.242997             1     0.0886111      0.999995
     0.244164             1     0.0682384      0.999996
     0.245331             1     0.0502319      0.999996
     0.246498             1     0.0344445      0.999996
     0.247666             1     0.0206939      0.999997
     0.248833             1    0.00874303      0.999997
         0.25             1   0.000473605      0.999997
      0.25122             1   0.000417835      0.999997
     0.252439             1   0.000343495      0.999997
     0.253628             1   0.000259863      0.999998
     0.254848             1   0.000213358      0.999998
     0.256069             1    0.00017064      0.999998
     0.257256             1    0.00013001      0.999998
     0.258477             1   0.000117003      0.999998
     0.259664             1   8.97816e-05      0.999999
      0.26085             1   7.35223e-05      0.999999
     0.262073      0.999999   6.94995e-05      0.999999
     0.263259      0.999999   5.41693e-05      0.999999
     0.264444      0.999999   4.69143e-05      0.999999
      0.26567      0.999999   4.65619e-05      0.999999
     0.266896      0.999999   4.04734e-05      0.999999
     0.268078      0.999999   3.00085e-05      0.999999
     0.269306      0.999998   2.86422e-05      0.999999
     0.270534      0.999998   2.27984e-05      0.999999
     0.271762      0.999997   1.83872e-05      0.999999
     0.272989      0.999996   1.56335e-05             1
     0.274217      0.999995    1.3287e-05             1
     0.275445      0.999994   1.11736e-05             1
     0.276673      0.999993   9.28476e-06             1
       0.2779      0.999991    7.4793e-06             1
     0.279128      0.999989   5.81046e-06             1
     0.280356      0.999987   4.30935e-06             1
     0.281584      0.999985   3.53219e-06             1
     0.282899      0.999976   3.99872e-06             1
     0.284121      0.999977   2.23897e-06             1
     0.285342      0.999972   1.74899e-06             1
     0.286675      0.999953   2.00346e-06             1
     0.288007      0.999939   1.38577e-06             1
      0.28934      0.999922   1.08071e-06             1
     0.290672      0.999903   8.41377e-07             1
     0.292005       0.99988   6.40494e-07             1
     0.293337      0.999854   4.71141e-07             1
      0.29467      0.999826   3.35326e-07             1
     0.296002      0.999793   2.86622e-07             1
     0.297335      0.999748   2.61195e-07             1
     0.298667      0.999687   2.45245e-07             1
          0.3      0.999604   2.32028e-07             1
     0.301429      0.999411   2.59104e-07             1
     0.302857      0.999238   2.85337e-07             1
     0.304286      0.999033     3.134e-07             1
     0.305714      0.998796   3.61776e-07             1
     0.307098      0.998611    4.2478e-07             1
     0.308398      0.998526   4.86315e-07             1
     0.309659      0.997255   5.86262e-07             1
     0.310881      0.993577   7.18202e-07             1
     0.312067      0.986098   8.94601e-07             1
     0.313182      0.975072   9.42046e-07             1
     0.314265       0.96015   1.04132e-06             1
     0.315316      0.941516   1.13511e-06             1
     0.316336      0.919497   1.21049e-06             1
     0.317298      0.895209   1.26753e-06             1
     0.318233      0.868423   1.31744e-06             1
      0.31914       0.83947   1.36541e-06             1
     0.320022      0.808697   1.41362e-06             1
     0.320855      0.777344   1.45989e-06             1
     0.321664      0.744833   1.50889e-06             1
     0.322451      0.711346   1.56277e-06             1
     0.323217      0.677089   1.62334e-06             1
     0.323941      0.643232   1.68785e-06             1
     0.324645      0.605823   1.97768e-06             1
      0.32533      0.564455   2.28308e-06             1
     0.325979      0.526139   2.63054e-06             1
     0.326611      0.489645   2.92963e-06             1
     0.327211      0.455669   2.87042e-06             1
     0.327795      0.423437   2.63721e-06             1
     0.328351      0.393696   2.42024e-06             1
     0.328892      0.365643    2.2714e-06             1
      0.32942      0.339258   2.20049e-06             1
     0.329921      0.315064   2.18414e-06             1
     0.330411      0.292326   2.20473e-06             1
     0.330878      0.271472   2.22796e-06             1
     0.331333      0.251878   2.27531e-06             1
     0.331777       0.23348   2.39922e-06             1
     0.332201      0.216604   2.52993e-06             1
     0.332615      0.200749   2.64476e-06             1
     0.333019      0.185856   2.75693e-06             1
     0.333414      0.171871   2.87336e-06             1
       0.3338       0.15874    2.9652e-06             1
     0.334168      0.146688   2.98354e-06             1
     0.334528      0.135358    2.9824e-06             1
      0.33488      0.124709   2.98252e-06             1
     0.335223        0.1147   2.98343e-06             1
     0.335559      0.105292   2.98466e-06             1
     0.335887     0.0964487   2.98613e-06             1
     0.336201     0.0883167   2.98714e-06             1
     0.336508     0.0806612   2.98436e-06             1
     0.336807     0.0734539   2.84853e-06             1
     0.337094     0.0668135   2.72524e-06             1
     0.337375     0.0605542   2.59835e-06             1
     0.337649     0.0546539   2.48336e-06             1
     0.337918     0.0490915   2.38621e-06             1
      0.33818     0.0438475   2.30722e-06             1
     0.338437     0.0389035   2.24372e-06             1
     0.338689      0.034242   2.18471e-06             1
     0.338935     0.0296608   2.11974e-06             1
      0.33918     0.0250566    2.0893e-06             1
     0.339421     0.0207352   2.09737e-06             1
     0.339661     0.0165882   2.14186e-06             1
     0.339902     0.0126124    2.2213e-06             1
     0.340142    0.00880484   2.33656e-06             1
     0.340383     0.0051626   2.48764e-06             1
     0.340617    0.00176697   2.67046e-06             1
     0.340852  -2.21374e-28    2.8901e-06             1
     0.341086    5.2085e-20   3.14903e-06             1
     0.341327   2.67463e-20     3.458e-06             1
     0.341568   -2.4991e-32   3.80723e-06             1
     0.341816  -9.84315e-33   4.20165e-06             1
     0.342072  -2.60578e-33   4.65022e-06             1
     0.342345  -5.53216e-34    5.2112e-06             1
     0.342629  -5.87126e-36   5.89568e-06             1
     0.342924   1.02296e-21   6.70551e-06             1
     0.343245    6.0016e-39   7.70761e-06             1
     0.343583   -1.1317e-21   8.85698e-06             1
      0.34394   3.09213e-22   1.01583e-05             1
     0.344318   -3.4308e-40   1.16192e-05             1
     0.344724  -4.38634e-23   1.32567e-05             1
     0.345164  -4.75744e-23    1.5082e-05             1
     0.345647  -5.48731e-43    1.7324e-05             1
     0.346131    -3.256e-44   2.06729e-05             1
     0.346615   1.10742e-48   2.38938e-05             1
     0.347098   2.98474e-47   2.69786e-05             1
     0.347582   1.08637e-48   3.03403e-05             1
     0.348066  -1.70166e-49   3.42619e-05             1
     0.348549   4.29442e-54   3.77258e-05             1
     0.349033             0   4.12944e-05             1
     0.349516  -1.96149e-13    4.4532e-05             1
         0.35  -4.01863e-13   4.75064e-05             1
     0.350538   -6.3275e-13   5.09393e-05             1
     0.351113  -8.81192e-13   5.42305e-05             1
     0.351695  -1.13323e-12   5.63274e-05             1
      0.35227  -1.38194e-12   5.81458e-05             1
     0.352852  -1.63247e-12    5.9805e-05             1
     0.353441  -1.88425e-12   6.13151e-05             1
     0.354038  -2.13671e-12   6.26837e-05             1
     0.354627  -2.38241e-12    6.3948e-05             1
     0.355217  -2.62422e-12   6.51046e-05             1
     0.355806  -2.86165e-12   6.61599e-05             1
     0.356403  -3.09659e-12   6.70693e-05             1
        0.357  -3.32686e-12   6.75968e-05             1
     0.357598  -3.55124e-12   6.77518e-05             1
     0.358195  -3.76942e-12   6.83052e-05             1
     0.358801  -3.98774e-12   6.84184e-05             1
     0.359416  -4.20689e-12   6.83106e-05             1
      0.36003  -4.42208e-12   6.82731e-05             1
     0.360645  -4.63599e-12   6.84735e-05             1
      0.36126   -4.8454e-12   6.87796e-05             1
     0.361875  -5.05015e-12   6.90834e-05             1
      0.36249  -5.24871e-12   6.93664e-05             1
     0.363115  -5.44389e-12   6.96321e-05             1
     0.363751  -5.63517e-12   6.98796e-05             1
     0.364387  -5.81899e-12   7.01048e-05             1
     0.365023   -5.9952e-12   7.03141e-05             1
     0.365659  -6.16365e-12    7.0511e-05             1
     0.366295   -6.3243e-12   7.06993e-05             1
     0.366931  -6.47712e-12   7.08841e-05             1
     0.367579  -6.62476e-12   7.10735e-05             1
     0.368228  -6.76411e-12   7.12683e-05             1
      0.36889  -6.89767e-12   7.14751e-05             1
     0.369552   -7.0224e-12   7.17186e-05             1
     0.370214  -7.13823e-12   7.19868e-05             1
     0.370875  -7.24499e-12   7.22863e-05             1
     0.371537  -7.34244e-12    7.2627e-05             1
     0.372199   -7.4305e-12   7.30177e-05             1
     0.372861  -7.50908e-12   7.34792e-05             1
     0.373523  -7.57793e-12   7.40422e-05             1
     0.374202  -7.63843e-12   7.47167e-05             1
     0.374881  -7.68914e-12   7.56701e-05             1
      0.37556  -7.73078e-12   7.66029e-05             1
     0.376239  -7.76442e-12   7.67997e-05             1
     0.376918   -7.7911e-12   7.70139e-05             1
     0.377597  -7.81244e-12   7.76237e-05             1
     0.378275  -7.83045e-12   7.83168e-05             1
     0.378954  -7.84716e-12   7.90077e-05             1
     0.379633  -7.86178e-12   7.96852e-05             1
     0.380312  -7.87233e-12   8.03671e-05             1
     0.380991   -7.8763e-12   8.14564e-05             1
      0.38167  -7.87344e-12   8.29699e-05             1
     0.382349  -7.86454e-12   8.45926e-05             1
     0.383028  -7.85016e-12   8.61443e-05             1
     0.383707  -7.83073e-12    8.7627e-05             1
     0.384385  -7.80636e-12   8.90397e-05             1
     0.385064  -7.77735e-12   9.03832e-05             1
     0.385743  -7.74378e-12   9.16581e-05             1
     0.386422  -7.70587e-12    9.2867e-05             1
     0.387101  -7.66372e-12   9.40132e-05             1
      0.38778  -7.61729e-12   9.51001e-05             1
     0.388459  -7.56661e-12   9.61119e-05             1
     0.389138  -7.51185e-12   9.70453e-05             1
     0.389862  -7.44898e-12   9.79626e-05             1
     0.390586  -7.38152e-12    9.8792e-05             1
      0.39131  -7.30939e-12   9.95223e-05             1
       0.3921  -7.22532e-12   0.000100208             1
      0.39289  -7.13589e-12   0.000100794             1
      0.39368  -7.04128e-12   0.000101296             1
      0.39447  -6.94167e-12   0.000101724             1
      0.39526  -6.83724e-12   0.000102084             1
      0.39605  -6.72822e-12   0.000102376             1
      0.39684  -6.61482e-12   0.000102603             1
      0.39763  -6.49751e-12   0.000102766             1
      0.39842  -6.37683e-12   0.000102866             1
      0.39921   -6.2539e-12   0.000102905             1
          0.4  -6.13062e-12   0.000102886             1
     0.400893  -5.99372e-12   0.000102843             1
     0.401895  -5.82931e-12   0.000102667             1
     0.403014  -5.63367e-12   0.000102326             1
      0.40425  -5.40893e-12   0.000101781             1
     0.405596  -5.17043e-12   0.000101017             1
     0.407076  -4.91463e-12   9.99674e-05             1
     0.408609  -4.65797e-12   9.86897e-05             1
     0.410201  -4.39973e-12   9.72481e-05             1
     0.411793  -4.14793e-12   9.58527e-05             1
     0.413321  -3.91149e-12   9.46457e-05             1
     0.414916   -3.6633e-12   9.35041e-05             1
     0.416441  -3.42612e-12   9.25308e-05             1
     0.417967  -3.18583e-12   9.15542e-05             1
     0.419492  -2.94189e-12   9.16268e-05             1
     0.420945  -2.70793e-12   9.14037e-05             1
     0.422398  -2.47026e-12    8.9562e-05             1
      0.42385  -2.23029e-12   8.74949e-05             1
     0.425227  -2.00783e-12   8.56095e-05             1
     0.426603   -1.7887e-12   8.38493e-05             1
     0.427979  -1.56577e-12   8.22136e-05             1
     0.429275  -1.35141e-12   8.08272e-05             1
      0.43057  -1.13043e-12    7.9651e-05             1
     0.431865  -9.02934e-13   7.85115e-05             1
     0.433161  -6.69038e-13   7.74342e-05             1
     0.434456  -4.29481e-13   7.64269e-05             1
     0.435652  -2.05099e-13   7.55562e-05             1
     0.436847             0   7.57231e-05             1
     0.438043             0   7.58934e-05             1
     0.439239  -1.54334e-29   7.60587e-05             1
     0.440434   1.34928e-14   7.62029e-05             1
      0.44163   4.31746e-14   7.63879e-05             1
     0.442826   8.86595e-14   7.64439e-05             1
     0.443851   1.40795e-13   7.63716e-05             1
     0.444876   2.04128e-13   7.61939e-05             1
       0.4459   2.78457e-13   7.58866e-05             1
     0.446925   3.63349e-13   7.54477e-05             1
      0.44795   4.57611e-13   7.48778e-05             1
     0.448975    5.6032e-13    7.4199e-05             1
         0.45   6.70122e-13    7.3427e-05             1
      0.45102   7.84373e-13   7.28203e-05             1
      0.45202   8.99088e-13   7.21603e-05             1
     0.452999   1.01317e-12   7.14548e-05             1
     0.453886   1.11785e-12   7.07673e-05             1
     0.454695   1.21544e-12   7.00946e-05             1
     0.455414   1.30297e-12   6.94646e-05             1
      0.45608   1.38588e-12   6.88576e-05             1
     0.456716   1.46625e-12   6.82532e-05             1
     0.457334   1.54534e-12   6.76436e-05             1
     0.457953   1.62645e-12   6.70109e-05             1
     0.458562   1.70789e-12   6.63656e-05             1
     0.459172   1.79025e-12   6.57016e-05             1
      0.45979   1.87513e-12   6.50105e-05             1
     0.460418   1.96337e-12   6.42931e-05             1
     0.461067   2.05649e-12   6.35392e-05             1
     0.461716   2.15146e-12    6.2775e-05             1
       0.4624   2.25293e-12   6.19646e-05             1
     0.463096   2.35839e-12   6.11328e-05             1
     0.463792   2.46543e-12   6.02825e-05             1
     0.464502   2.57558e-12   5.93899e-05             1
     0.465198   2.68422e-12   5.84785e-05             1
     0.465894    2.7928e-12   5.75351e-05             1
     0.466605     2.903e-12   5.65421e-05             1
     0.467331   3.01506e-12   5.54837e-05             1
     0.468057   3.12607e-12   5.43895e-05             1
     0.468783   3.23603e-12   5.32641e-05             1
     0.469526   3.34743e-12   5.20798e-05             1
     0.470288   3.46029e-12   5.08345e-05             1
      0.47105   3.57179e-12   4.95599e-05             1
     0.471812   3.68185e-12   4.82578e-05             1
     0.472574    3.7907e-12   4.69285e-05             1
     0.473335   3.89816e-12   4.55747e-05             1
     0.474097   4.00431e-12   4.41999e-05             1
     0.474859   4.10924e-12   4.28066e-05             1
     0.475621     4.213e-12   4.14087e-05             1
     0.476383   4.31552e-12   4.00137e-05             1
     0.477121   4.41345e-12   3.86576e-05             1
     0.477859   4.50985e-12   3.72934e-05             1
     0.478622    4.6078e-12   3.58775e-05             1
     0.479386   4.75873e-12    3.4455e-05             1
     0.480149   4.90717e-12   3.34814e-05             1
     0.480885    5.0473e-12   3.34525e-05             1
      0.48162   5.18441e-12   3.34623e-05             1
     0.482355   5.31817e-12   3.34738e-05             1
     0.483122   5.45374e-12   3.34887e-05             1
     0.483889   5.58512e-12   3.35031e-05             1
     0.484656     5.712e-12   3.35179e-05             1
     0.485424   5.83374e-12   3.35329e-05             1
     0.486191   5.95075e-12   3.35485e-05             1
     0.486958   6.06248e-12    3.3551e-05             1
     0.487683   6.16257e-12   3.35568e-05             1
     0.488407   6.25821e-12   3.35714e-05             1
     0.489132    6.3491e-12   3.35863e-05             1
     0.489856   6.43475e-12   3.36016e-05             1
     0.490581   6.51501e-12   3.36174e-05             1
     0.491305     6.591e-12   3.36337e-05             1
      0.49203   6.66263e-12   3.36504e-05             1
     0.492694   6.72402e-12   3.36637e-05             1
     0.493358   6.78053e-12   3.36775e-05             1
     0.494022   6.83413e-12   3.36918e-05             1
     0.494687   6.88514e-12   3.37065e-05             1
     0.495351   6.93347e-12   3.37218e-05             1
     0.496015   6.97894e-12   3.37375e-05             1
     0.496679   7.02134e-12   3.37538e-05             1
     0.497343   7.06014e-12   3.37704e-05             1
     0.498007   7.09672e-12   3.37873e-05             1
     0.498672   7.13169e-12   3.38044e-05             1
     0.499336   7.16495e-12   3.38216e-05             1
          0.5   7.19643e-12   3.38391e-05             1
     0.500704   7.22772e-12   3.38601e-05             1
     0.501419   7.25713e-12   3.38823e-05             1
     0.502133   7.28395e-12   3.39046e-05             1
     0.502848   7.30806e-12    3.3927e-05             1
     0.503562   7.33137e-12   3.39495e-05             1
     0.504276   7.35383e-12   3.39719e-05             1
     0.504991   7.37542e-12   3.39943e-05             1
     0.505705   7.39593e-12   3.40165e-05             1
      0.50642   7.41539e-12   3.40386e-05             1
     0.507134   7.43382e-12   3.40605e-05             1
     0.507849   7.45101e-12   3.40822e-05             1
     0.508563   7.46695e-12   3.41036e-05             1
      0.50929    7.4817e-12   3.41258e-05             1
     0.510004   7.49556e-12   3.41472e-05             1
     0.510718   7.50947e-12   3.41691e-05             1
     0.511433   7.52315e-12   3.41916e-05             1
      0.51216   7.53687e-12   3.42159e-05             1
     0.512888   7.55053e-12   3.42409e-05             1
      0.51363   7.56454e-12    3.4268e-05             1
     0.514372   7.57875e-12   3.42958e-05             1
      0.51513   7.59297e-12   3.43261e-05             1
     0.515888   7.60684e-12    3.4357e-05             1
     0.516647   7.62024e-12   3.43887e-05             1
     0.517388   7.63288e-12   3.44192e-05             1
     0.518112   7.64473e-12   3.44487e-05             1
     0.518837   7.65607e-12   3.44789e-05             1
     0.519579   7.66793e-12   3.45117e-05             1
      0.52034   7.68037e-12   3.45477e-05             1
      0.52112   7.69343e-12   3.45873e-05             1
     0.521922   7.70703e-12   3.46309e-05      0.999999
     0.522748   7.72117e-12   3.46794e-05      0.999999
     0.523574   7.73547e-12   3.47291e-05      0.999999
       0.5244   7.74981e-12   3.47801e-05      0.999999
     0.525253   7.76435e-12   3.48369e-05      0.999999
     0.526107   7.77816e-12    3.4895e-05      0.999999
      0.52696   7.79142e-12   3.49544e-05      0.999998
     0.527813   7.80427e-12   3.50152e-05      0.999998
     0.528701   7.81715e-12   3.50842e-05      0.999997
     0.529588   7.82916e-12   3.51208e-05      0.999997
     0.530476   7.83986e-12   3.51294e-05      0.999997
     0.531363   7.84965e-12   3.51415e-05      0.999996
     0.532251    7.8594e-12   3.51536e-05      0.999995
     0.533138   7.86904e-12   3.51664e-05      0.999994
     0.534025    7.8784e-12   3.51798e-05      0.999993
     0.534913   7.88709e-12   3.51937e-05      0.999992
       0.5358   7.89447e-12   3.52082e-05       0.99999
     0.536688   7.89995e-12   3.52233e-05      0.999989
     0.537575   7.90535e-12    3.5239e-05      0.999986
     0.538463   7.91061e-12   3.52555e-05      0.999984
      0.53935   7.91568e-12   3.52727e-05       0.99998
     0.540238    7.9203e-12   3.52906e-05      0.999977
     0.541125   7.92416e-12   3.53098e-05      0.999972
     0.542013   7.92676e-12   3.53309e-05      0.999967
       0.5429   7.92768e-12   3.53536e-05      0.999962
     0.543788   7.92614e-12   3.53788e-05      0.999955
     0.544564    7.9237e-12   3.53901e-05      0.999961
     0.545341   7.92134e-12   3.54671e-05      0.999957
     0.546117   7.91906e-12   3.56389e-05      0.999951
     0.546894   7.91668e-12   3.58831e-05      0.999945
      0.54767     7.914e-12   3.62255e-05      0.999938
     0.548447   7.91095e-12   3.66446e-05       0.99993
     0.549223   7.90738e-12   3.71401e-05      0.999922