/*--------------------------------*- C++ -*----------------------------------*\
  =========                 |
  \\      /  F ield         | OpenFOAM: The Open Source CFD Toolbox
   \\    /   O peration     | Website:  https://openfoam.org
    \\  /    A nd           | Version:  7
     \\/     M anipulation  |
\*---------------------------------------------------------------------------*/
FoamFile
{
    version     2.0;
    format      ascii;
    class       surfaceScalarField;
    location    "0.55";
    object      phi;
}
// * * * * * * * * * * * * * * * * * * * * * * * * * * * * * * * * * * * * * //

dimensions      [0 3 -1 0 0 0 0];

internalField   nonuniform List<scalar> 
8804
(
0.004
0.00240827
-0.00040827
-0.00066767
0.00266767
0.0017406
-0.00070076
0.00270076
0.00196691
-0.00067146
0.00267146
0.0020293
-0.00071107
0.00271107
0.00196039
-0.00072314
0.00272314
0.00198793
-0.00072388
0.00272388
0.00199926
-0.00068078
0.00268078
0.0020431
-0.00069751
0.00269751
0.00198327
-0.00069119
0.00269119
0.00200632
-0.0006886
0.0026886
0.00200259
-0.00073114
0.00273114
0.00195746
-0.00071885
0.00271885
0.00201229
-0.00065949
0.00265949
0.00205936
-0.00072358
0.00272358
0.00193591
-0.00075228
0.00275228
0.0019713
-0.00068847
0.00268847
0.00206381
-0.000739
0.002739
0.00194947
-0.00070257
0.00270257
0.00203643
-0.00074724
0.00274724
0.00195533
-0.00072918
0.00272918
0.00201806
-0.00069137
0.00269137
0.00203781
-0.00072046
0.00272046
0.00197091
-0.00065911
0.00265911
0.00206135
-0.00068031
0.00268031
0.0019788
-0.00075758
0.00275758
0.00192273
-0.0007155
0.0027155
0.00204208
-0.00068955
0.00268955
0.00202595
-0.00072787
0.00272787
0.00196168
-0.00071733
0.00271733
0.00201054
-0.00065809
0.00265809
0.00205924
-0.00072306
0.00272306
0.00193503
-0.00075228
0.00275228
0.00197078
-0.00068732
0.00268732
0.00206496
-0.0007313
0.0027313
0.00195602
-0.00067932
0.00267932
0.00205198
-0.00071768
0.00271768
0.00196164
-0.00070766
0.00270766
0.00201002
-0.00068086
0.00268086
0.0020268
-0.00074876
0.00274876
0.0019321
-0.00074842
0.00274842
0.00200034
-0.00074385
0.00274385
0.00200457
-0.00078363
0.00278363
0.00196022
-0.00078556
0.00278556
0.00199807
-0.00075471
0.00275471
0.00203085
-0.00085002
0.00285002
0.00190469
-0.00098294
0.00298294
0.00186708
-0.00116827
0.00316827
0.00181467
0.00348431
-0.00148431
0.00148431
0.00168396
0.00294721
-0.00094721
-0.00069303
0.00269303
-0.00065506
0.00265506
-0.00064741
0.00264741
-0.0006985
0.0026985
0.00267876
-0.00067876
0.0026891
-0.0006891
0.00265614
-0.00065614
0.00275499
-0.00075499
0.00268601
-0.00068601
0.00266757
-0.00066757
0.00274203
-0.00074203
0.0026735
-0.0006735
0.00270228
-0.00070228
0.00271791
-0.00071791
0.00269198
-0.00069198
0.00268818
-0.00068818
0.00265964
-0.00065964
0.0027001
-0.0007001
0.00267626
-0.00067626
0.00271525
-0.00071525
0.00270794
-0.00070794
0.00271581
-0.00071581
0.00275455
-0.00075455
1.73472e-18
-0.00250988
0.00050988
0.00067138
-0.00267138
0.0007582
-0.0027582
0.0007366
-0.0027366
0.0006869
-0.0026869
0.0007151
-0.0027151
0.0007171
-0.0027171
0.0007803
-0.0027803
0.000751
-0.002751
0.0007545
-0.0027545
0.0007345
-0.0027345
0.0006926
-0.0026926
0.0007371
-0.0027371
0.0007647
-0.0027647
0.0007678
-0.0027678
0.0007147
-0.0027147
0.0006931
-0.0026931
0.0007518
-0.0027518
0.0007792
-0.0027792
0.0007736
-0.0027736
0.0007988
-0.0027988
0.0007963
-0.0027963
0.0009441
-0.0029441
0.0009236
-0.0029236
-0.004
-0.00315437
0.00115437
-0.00167006
-0.00326989
0.00126989
-0.00211552
-0.00309502
0.00109502
-0.00182513
-0.00311806
0.00111806
-0.00202304
-0.0031451
0.0011451
-0.00202704
-0.0031385
0.0011385
-0.0019934
-0.0031727
0.0011727
-0.0020342
-0.0030224
0.0010224
-0.0018497
-0.0030577
0.0010577
-0.0020353
-0.0030908
0.0010908
-0.0020331
-0.0031295
0.0011295
-0.0020387
-0.00304
0.00104
-0.0019105
-0.0030896
0.0010896
-0.0020496
-0.0030826
0.0010826
-0.001993
-0.0030192
0.0010192
-0.0019366
-0.003075
0.001075
-0.0020558
-0.0030149
0.0010149
-0.0019399
-0.0030634
0.0010634
-0.0020485
-0.0031831
0.0011831
-0.0021197
-0.0030314
0.0010314
-0.0018483
-0.0030419
0.0010419
-0.0020105
-0.0030234
0.0010234
-0.0019815
-0.0030152
0.0010152
-0.0019918
-0.0031055
0.0011055
-0.0020903
-0.0030204
0.0010204
-0.0019149
-0.0030035
0.0010035
-0.0019831
-0.0030615
0.0010615
-0.002058
-0.0030467
0.0010467
-0.0019852
-0.0030404
0.0010404
-0.0019937
-0.0030911
0.0010911
-0.0020507
-0.0030864
0.0010864
-0.0019953
-0.0030225
0.0010225
-0.0019361
-0.0030753
0.0010753
-0.0020528
-0.0030187
0.0010187
-0.0019434
-0.0030549
0.0010549
-0.0020362
-0.0030523
0.0010523
-0.0019974
-0.0029914
0.0009914
-0.0019391
-0.003042
0.001042
-0.0020506
-0.0030066
0.0010066
-0.0019646
-0.0030047
0.0010047
-0.0019981
-0.0031021
0.0011021
-0.0020974
-0.0030565
0.0010565
-0.0019544
-0.003032
0.001032
-0.0019755
-0.0028605
0.0008605
-0.0018285
-0.0027599
0.0007599
-0.0018994
-0.0029357
0.0009357
-0.0021758
-0.0032214
0.0012214
-0.0022857
0.0022017
-0.0042017
-0.0017983
-0.0029803
-0.00250988
-0.0037983
-0.00084282
0.00284282
0.00260654
-0.00060654
0.00268059
-0.00068059
0.00266406
-0.00066406
-0.00062621
0.00262621
-0.00064533
0.00264533
-0.00066955
0.00266955
-0.00066417
0.00266417
-0.00070841
0.00270841
-0.00069944
0.00269944
-0.00067898
0.00267898
-0.00070304
0.00270304
-0.0006549
0.0026549
-0.00070579
0.00270579
-0.00069986
0.00269986
-0.00070095
0.00270095
-0.00075412
0.00275412
-0.0006816
0.0026816
-0.00067264
0.00267264
-0.00071389
0.00271389
-0.00071899
0.00271899
-0.00069413
0.00269413
-0.00070184
0.00270184
0.00195148
-0.0008595
0.0028595
-0.0028747
-0.00263125
0.00063125
-0.00276318
0.00076318
-0.0027689
0.0007689
-0.0027298
0.0007298
-0.0027719
0.0007719
-0.0027298
0.0007298
-0.0027742
0.0007742
-0.0026932
0.0006932
-0.0027796
0.0007796
-0.0027517
0.0007517
-0.0027585
0.0007585
-0.0027072
0.0007072
-0.002788
0.000788
-0.0027726
0.0007726
-0.0027364
0.0007364
-0.0027566
0.0007566
-0.002741
0.000741
-0.0027587
0.0007587
-0.0027426
0.0007426
-0.0028382
0.0008382
-0.0028288
0.0008288
-0.0029738
0.0009738
-0.0025859
0.0005859
0.00203318
0.00210439
0.00196556
0.00305279
0.00197447
0.00198335
0.00207229
0.00203343
0.00201955
0.00199197
0.00204658
0.00198657
0.00198859
0.00203899
0.0020186
0.00199649
0.00201805
0.00199103
0.00193406
0.00197804
0.00202746
0.00196237
0.00199626
0.00201381
0.00201397
0.00189505
-0.0020918
-0.0020107
-0.0019932
-0.002085
-0.0020147
-0.0020571
-0.0019129
-0.0020286
-0.0019972
-0.002024
-0.0020146
-0.0020509
-0.0020079
-0.0019686
-0.0020419
-0.0020479
-0.0020069
-0.0019634
-0.0020646
-0.00203
-0.0021775
-0.0016418
-0.00212137
0.00194745
0.00195623
0.00201341
0.00190918
0.0020224
0.00203187
0.00193695
0.00202954
0.00195262
0.00198788
0.00200788
0.00201277
0.00209448
0.0019815
0.00199638
0.00199864
0.00201105
0.00197832
0.00194729
-0.00199502
-0.0019677
-0.0019571
-0.0019432
-0.0019873
-0.0020061
-0.0020578
-0.0019749
-0.0019828
-0.0019341
-0.0020299
-0.0019767
-0.0019952
-0.0019783
-0.0019365
-0.0020108
-0.0020205
-0.002031
-0.0019606
-0.0019675
-0.0019703
-0.0023377
0.00214979
0.00208649
-0.00204013
0.00264452
-0.00080475
0.00277922
0.00273098
-0.00076407
-0.00062283
0.00265213
0.00210815
-0.00073913
0.00269952
0.001913
-0.00078989
0.00277782
0.00190963
-0.0007561
0.00275536
0.00202172
-0.00063969
0.00268279
0.00211567
-0.00067044
0.00265371
0.00201235
-0.00064617
0.00265249
0.00200754
-0.00066745
0.00267004
0.00198504
-0.00069639
0.00265385
0.00197365
-0.00064963
0.00266192
0.00200422
-0.00064179
0.00270115
0.00202013
-0.00071289
0.0026488
0.00198826
-0.00066566
0.00263696
0.00198314
-0.00064466
0.00270847
0.0019923
-0.00070834
0.00265781
0.00200013
-0.0006323
0.00266873
0.00202551
-0.00067396
0.00262929
0.00199477
-0.0007245
0.00274256
0.00190479
-0.00059821
0.00263602
0.00214435
-0.00070228
0.00267319
0.00193374
-0.00068981
0.00275116
0.00198338
-0.00070256
0.00268136
0.0020486
-0.00073721
0.00265994
0.00194415
-0.00062057
0.00266265
0.00203937
-0.00062956
0.00265551
0.00203309
-0.00069142
0.0026531
0.00196409
-0.00064895
0.00265949
0.00200415
-0.00063995
0.00269919
0.00201954
-0.00071278
0.00264781
0.00198641
-0.00066644
0.00263722
0.00198137
-0.00064593
0.00271089
0.00199129
-0.00070791
0.00266393
0.00200298
-0.00062393
0.00267591
0.00204
-0.00066709
0.00262873
0.00200882
-0.00064864
0.00265866
0.00198009
-0.0006698
0.0026966
0.00198886
-0.00073471
0.00266681
0.00196189
-0.00069621
0.00269655
0.0019706
-0.0006584
0.00266297
0.00203815
-0.00078128
0.0027415
0.00188169
-0.00072688
0.00272495
0.00201462
-0.00079129
0.00282214
0.00193366
-0.00087431
0.002779
0.00194783
-0.0008533
0.00272038
0.0019257
-0.00110724
0.00292191
0.00161314
0.0030594
-0.00137544
0.00138934
0.00154647
-0.00271146
0.00067133
0.00276748
-0.00068099
-0.0007639
0.00274725
-0.00116387
0.00326826
0.00284559
-0.0007733
-0.00078088
0.00281431
0.00274913
-0.00072958
-0.00079813
0.0027901
0.0027468
-0.00070022
0.00275212
-0.00076555
0.0027829
-0.00079431
-0.00072167
0.00276066
-0.00076727
0.00278587
-0.00076777
0.00276426
-0.00073622
0.00275427
-0.00067658
0.00266761
-0.00076785
0.00270191
-0.0008228
0.00280084
-0.00073472
0.00276218
-0.00077236
0.00273473
-0.00078881
0.00278507
-0.0007664
0.00278021
-0.00073868
0.00275265
0.00245807
-0.00056302
-0.00269464
0.00069962
-0.00079607
0.00274755
0.00197141
0.0019428
0.00034962
-0.000117
-0.0027577
-0.0030973
-0.00081045
0.0027579
0.00203514
0.00197702
0.00148065
0.0007394
-0.0027071
-0.0027148
0.0007577
0.0007016
-0.0026448
0.0006937
-0.002681
-0.002691
0.0006849
0.000741
-0.0027988
0.0007015
-0.0026764
0.0007139
-0.0026967
-0.0026261
0.000692
-0.0027327
0.0007028
-0.0027364
0.0007597
-0.0027237
0.0007285
-0.0027102
0.0007319
-0.0026235
0.000687
-0.0027068
0.000696
-0.0027019
0.0006814
-0.0027718
0.0007408
-0.0026898
0.0007292
-0.0028134
0.0008459
-0.0030028
0.0010325
-0.000316
-0.0020217
-0.0030737
-0.00061369
0.00276348
0.00265457
0.00208249
-0.0007968
0.00282998
0.00198242
0.00206608
0.00273866
-0.0007731
0.00196536
-0.00332281
0.00120729
-0.00193347
-0.00294809
0.00112296
-0.0017408
-0.00309282
0.00106978
-0.00196986
-0.00303784
0.0010108
-0.00196806
-0.0030111
0.0010177
-0.0020003
-0.0030685
0.0010343
-0.0020508
-0.0029342
0.0010845
-0.0018999
-0.0031033
0.001068
-0.0020188
-0.0031312
0.0010981
-0.0020632
-0.0030507
0.001012
-0.0019526
-0.0030042
0.0010937
-0.0019922
-0.0030729
0.0010233
-0.0019792
-0.0030116
0.0010186
-0.0019883
-0.0030815
0.0011449
-0.0020629
-0.0030669
0.0010111
-0.001922
-0.00302
0.0010801
-0.0020089
-0.0031845
0.001136
-0.0021044
-0.0030977
0.000978
-0.0019617
-0.0029173
0.001069
-0.0019393
-0.0031242
0.0011137
-0.0020552
-0.0030375
0.001056
-0.0019238
-0.0030439
0.0010521
-0.0019879
-0.003179
0.0010887
-0.0021269
-0.0029937
0.0010788
-0.001905
-0.0031277
0.0011446
-0.0020489
-0.0030605
0.0010025
-0.0019159
-0.002947
0.0009618
-0.0019445
-0.0031426
0.0011489
-0.0021808
-0.003069
0.0010183
-0.0019201
-0.0030172
0.0010219
-0.0019989
-0.0030868
0.0011507
-0.0020649
-0.0030659
0.0010131
-0.0019152
-0.0029987
0.0010553
-0.0019856
-0.0031768
0.0011406
-0.0021215
-0.003062
0.0010646
-0.0019214
-0.0029868
0.0010477
-0.0019222
-0.0031164
0.0010658
-0.0020687
-0.0029715
0.0010069
-0.0019057
-0.0030937
0.0010956
-0.0020868
-0.0031342
0.0010368
-0.0020386
-0.0030489
0.0010945
-0.0020121
-0.003128
0.0011525
-0.0020335
-0.0028232
0.0009947
-0.0016707
-0.0028357
0.0009363
-0.001841
-0.0024463
0.0002705
-0.00151
0.00322125
0.00280769
0.00245718
-0.00068632
-0.00202514
0.0027338
-0.0020401
0.0006767
0.00197415
0.00068535
-0.00277715
-0.0020143
-0.00077999
0.00273622
0.00276367
-0.00075026
-0.00073715
0.00264633
-0.00076443
0.00278683
-0.00073649
0.00276836
0.0027116
-0.00077465
0.00280003
-0.00077049
0.00265805
-0.00070543
0.00271544
-0.00072756
0.00277053
-0.00076265
0.00276801
-0.00075524
0.00281862
-0.00072414
0.00279397
-0.00081247
0.0027778
-0.00078142
0.00274938
-0.00075074
0.00276076
-0.00074971
0.00278199
-0.00080367
0.00263868
-0.00069139
-0.00200929
0.0027158
-0.0020142
0.0007011
0.0027436
-0.0020042
0.0007504
-0.0027073
0.0006966
-0.0019644
-0.00200768
-0.0028186
0.0007336
-0.0019799
0.00203432
-0.0026432
0.0007303
-0.0026781
0.0006495
-0.0027205
0.0007233
0.0007014
-0.0027254
0.0007324
-0.002747
0.0006365
-0.0026874
0.0006773
-0.0026852
0.0007376
-0.0027062
0.0006829
-0.0027248
0.000718
-0.0027659
0.0007268
-0.0027337
0.0007012
-0.0026646
0.0006524
-0.002717
0.0007052
-0.0027352
0.0007358
-0.0029133
-0.0036635
0.00196554
0.00197922
0.00189028
-0.00210582
0.00203276
-0.0026297
0.000344
0.00198993
-0.002267
-0.0021082
-0.0020374
-0.0020706
-0.0019751
-0.0019888
-0.0019406
-0.0019726
-0.0020464
-0.0020999
-0.0020003
-0.0019247
0.00207566
0.00204331
0.00199436
0.00196057
0.00200544
0.00205925
0.00199582
0.00200016
0.00209395
-0.002631
-0.0020674
-0.002006
-0.0019762
-0.0019832
-0.0020377
-0.0020789
-0.0019929
-0.0019777
-0.0019255
-0.0019846
-0.002055
-0.0020115
-0.002019
-0.0019371
-0.0020609
0.00206126
0.00197654
0.00203536
0.00198399
0.00198076
0.00198837
0.00197777
0.00191237
0.00199162
0.0020367
0.00208044
0.00199017
0.00200825
0.00201563
0.00198237
0.00205295
0.00199887
-0.0019583
0.00197405
0.00202128
0.00194611
0.00200664
-0.0020105
-0.0019734
-0.0019112
-0.0020269
-0.0020685
-0.00074894
0.0027143
0.0006411
-0.0026812
0.00277144
-0.00085844
-0.00100594
0.00291557
0.0017655
-0.00091619
0.00293791
0.00199938
-0.00085797
0.00297364
0.00207994
-0.00089678
0.00290913
0.00207686
-0.00080147
0.00280901
0.00210766
-0.00081356
0.0027986
0.00199545
-0.00080923
0.00278288
0.00198937
-0.00077978
0.002784
0.0020031
-0.00081995
0.00284008
0.00196405
-0.00080899
0.00279725
0.00203109
-0.00083304
0.00281618
0.00196421
-0.00081299
0.00280529
0.00200319
-0.00080246
0.00280259
0.00200283
-0.00082077
0.00284628
0.00198182
-0.00084492
0.00283969
0.00200136
-0.00082722
0.00273201
0.00201247
-0.00080061
0.00294496
0.0019314
-0.00088523
0.00281897
0.00205973
-0.00080099
0.00278437
0.00201798
-0.00080751
0.00285611
0.00197686
-0.00082982
0.00277397
0.00202629
-0.00080346
0.00284283
0.00197051
-0.00080628
0.00283937
0.00203655
-0.00083247
0.00279656
0.0020069
-0.00078008
0.00278423
0.00201648
-0.00081792
0.00283746
0.00196631
-0.00080874
0.00279515
0.00202872
-0.00083404
0.00281541
0.00196111
-0.00081514
0.00280643
0.00200027
-0.00080605
0.00280903
0.00200038
-0.0008258
0.0028658
0.00198323
-0.00085396
0.00286278
0.00201184
-0.00081597
0.00279606
0.00204681
-0.00081535
0.00280421
0.00198071
-0.00082266
0.00278455
0.00198155
-0.00079286
0.00276346
0.00199169
-0.00081987
0.00285802
0.00194359
-0.00088036
0.00276205
0.00197766
-0.00079692
0.00281154
0.00196513
-0.00090393
0.00283759
0.00190761
-0.00092313
0.00287096
0.00191446
-0.00098755
0.00291325
0.00188341
-0.00119892
0.00281206
0.00171433
0.00318863
-0.00164216
0.00125516
0.0011699
0.0007424
-0.0027566
-0.00063471
0.00266747
-0.0027074
0.000734
-0.0023592
-0.002662
0.0006515
-0.0026489
0.0006906
-0.00069941
0.00267863
-0.00070885
0.00270772
0.00272576
-0.00071912
0.00201691
-0.00066225
0.0027152
-0.00067901
0.00266138
0.0027191
-0.00070347
-0.002819
0.000552
-0.00068757
0.00269582
-0.0027533
0.00268914
-0.00069897
0.00205443
-0.00275174
0.00064592
0.00265805
-0.00076777
-0.00071144
0.00274814
0.00194661
0.00204873
-0.003127
0.000496
-0.00067006
0.00276401
0.00269116
-0.000691
0.00265691
-0.00066109
0.00275405
-0.0006948
0.00268038
-0.00067494
0.00269311
-0.00073254
-0.00071782
0.00271218
-0.00073998
0.00278329
0.0026746
-0.00064028
0.00195548
0.00266312
-0.00068907
0.00197555
0.0007221
-0.00272978
-0.0019399
-0.0027081
0.0006938
-0.002067
-0.0019551
-0.0027234
0.000759
-0.0027321
0.0007052
-0.0026846
0.0007047
-0.0019422
-0.0019765
0.000737
-0.0027412
-0.0019864
0.00269027
-0.00071612
0.00194133
0.0007273
-0.0026644
-0.0020048
0.000757
-0.0026682
-0.0019996
-0.0027602
0.0007412
-0.002055
-0.0019662
0.0007139
-0.0026386
0.0007473
-0.0027476
-0.0027735
0.0006736
0.0006831
-0.0027295
0.0007024
-0.002675
-0.0026519
0.0007113
-0.0026906
0.0007018
-0.0026476
0.0006725
-0.0027367
0.0006661
-0.002695
0.0006576
0.0007213
-0.0028295
0.0007303
-0.0027977
-0.0020887
0.00270479
-0.00073925
0.00204254
-0.00293521
0.00119441
-0.00168005
-0.00299437
0.00102451
-0.00179996
-0.00300226
0.0010342
-0.00197775
-0.0030658
0.0010655
-0.0020316
-0.003033
0.0009822
-0.0019675
-0.0028549
0.000955
-0.0018727
-0.0030773
0.0010585
-0.0021223
-0.0030661
0.0010029
-0.0020076
-0.0029697
0.0010171
-0.0019668
-0.0030713
0.0010791
-0.0020542
-0.0030326
0.0010534
-0.0019535
-0.0030422
0.0010539
-0.0019888
-0.0030765
0.0010136
-0.0020226
-0.0029225
0.0010005
-0.0019089
-0.0030699
0.001061
-0.0020694
-0.0030653
0.0009609
-0.0020043
-0.0029531
0.0009914
-0.0019922
-0.0030348
0.0010955
-0.0020434
-0.0030423
0.0009871
-0.0019468
-0.0029292
0.0010054
-0.0019421
-0.0030869
0.001099
-0.0020815
-0.0031026
0.0009757
-0.0020036
-0.0029162
0.0010112
-0.0019405
-0.0030731
0.0010242
-0.0020619
-0.0029162
0.0010003
-0.001892
-0.0030576
0.0011131
-0.0020573
-0.003237
0.0010562
-0.0021239
-0.0029436
0.0010235
-0.0018874
-0.0030503
0.0010514
-0.0020268
-0.0030898
0.0010249
-0.0020384
-0.0029269
0.0010117
-0.001902
-0.0030793
0.0010937
-0.0020676
-0.0031007
0.0009792
-0.002007
-0.0029336
0.0010122
-0.0019544
-0.0030291
0.0011069
-0.0020169
-0.0030262
0.0009575
-0.0019193
-0.0029154
0.0010097
-0.0019579
-0.0030505
0.0009637
-0.0020408
-0.0030142
0.0009756
-0.0020505
-0.0030035
0.0009914
-0.0020279
-0.003156
0.0011225
-0.0021646
-0.0030904
0.0014197
-0.0019679
-0.0028234
0.0009824
-0.0014037
-0.00067106
0.00266099
0.00202476
0.00196202
0.0005635
-0.0036372
-0.0021898
-0.0020897
0.00071145
-0.00273659
0.00066783
0.00199964
0.00274827
-0.00072129
0.00270371
-0.00204029
0.00254365
-0.0004355
0.00196847
-0.0013701
-0.0009891
-0.00066093
0.0006827
0.00199593
0.00267432
-0.002575
0.00203003
0.00071024
0.00200496
0.00265635
0.00197734
-0.00069389
0.00271517
0.0019805
0.00200426
-0.00074479
0.00265716
-0.00068504
0.00266281
-0.00070047
0.00268884
-0.0007219
0.00270266
-0.00074459
0.00272858
0.00270238
-0.00066702
0.00264945
-0.00067291
0.00078057
-0.00278986
-0.00062485
0.00259626
-0.0031412
0.00262945
-0.00065243
0.00198917
0.0026779
-0.0019439
0.0006664
0.00168521
-0.0027784
0.0007175
0.0007024
-0.0027709
0.0027302
-0.0019829
0.0007456
-0.0027573
0.0007023
-0.0020279
-0.0020434
-0.0026516
0.0007261
-0.0026481
0.0006704
0.0006932
-0.0026861
0.000696
-0.0027749
0.0006882
-0.0027259
0.0007146
-0.0026978
0.0006894
-0.0026656
0.0007548
-0.0027608
-0.0020764
0.0023925
-0.00031001
0.00176765
-0.0028801
0.00198456
-0.0006164
0.00265154
0.0020979
0.00199911
-0.0020747
-0.0020056
-0.0020221
-0.0019594
-0.0019946
-0.0019587
-0.00194921
0.00190947
-0.0021032
-0.0019995
-0.0020253
-0.00075457
0.00269737
0.00184169
0.00197608
-0.0020241
0.00253158
-7.44e-05
-0.0020636
-0.0019837
-0.001965
0.00203927
0.00202609
0.00193579
0.00203215
0.00195644
0.00200612
0.00196749
0.00279596
-0.0007347
-0.00066335
0.00272943
0.00204036
0.00201331
-0.0020194
0.00209608
0.00213503
0.00201922
0.00199604
0.00202772
0.00204859
0.00199404
0.0020117
0.00200172
0.00196616
-0.00214394
-0.0019722
-0.001978
-0.001962
-0.0019507
-0.0020803
-0.0020453
-0.0020046
-0.0020034
0.00258017
-0.00085461
0.00285425
0.00294576
-0.00094638
-0.00073612
0.00281606
0.00220964
-0.00065255
0.00272941
0.00216351
-0.00061037
0.00271803
0.00211904
-0.00060458
0.00260003
0.00211345
-0.00065755
0.00264692
0.00194248
-0.000662
0.0026651
0.00198492
-0.00065658
0.00262063
0.00200852
-0.00062291
0.002654
0.00199772
-0.00070093
0.00266514
0.00195307
-0.00066443
0.00266762
0.00200071
-0.00066838
0.00267121
0.00199924
-0.00072271
0.00270453
0.0019485
-0.00063244
0.0026338
0.00207209
-0.000628
0.00264047
0.0020058
-0.00069692
0.00262832
0.00194355
-0.00061933
0.00267906
0.00200899
-0.00065754
0.00267552
0.00202152
-0.0006503
0.00262716
0.00202522
-0.00062609
0.00265238
0.00200107
-0.00070043
0.00267094
0.00195195
-0.00065058
0.00268713
0.00202036
-0.00068691
0.00269381
0.00200022
-0.00065416
0.00267064
0.00203965
-0.00065057
0.00261688
0.00202007
-0.00062169
0.00265041
0.00199519
-0.00070169
0.0026628
0.00194872
-0.00066604
0.00266631
0.00199676
-0.00067044
0.00267082
0.00199587
-0.0007254
0.00270863
0.00194542
-0.00064277
0.00265461
0.00206586
-0.00065637
0.00270318
0.00199824
-0.00063549
0.0026162
0.00206769
-0.00067458
0.00265613
0.00194162
-0.00066994
0.00266163
0.00198619
-0.00066136
0.00260495
0.00200027
-0.00064115
0.00261881
0.0019638
-0.00075022
0.00271535
0.00186859
-0.00077034
0.00267795
0.00194501
-0.00073295
0.00264741
0.001945
-0.00070557
0.00258898
0.00194184
-0.00082861
0.00254294
0.00176037
0.00274127
-0.00157137
0.00106122
0.00097157
-0.00081996
0.00283687
9.474e-05
-0.0027801
0.0008021
-0.00084087
0.00282543
-0.0028638
0.0008185
-0.0027542
0.0007348
-0.00077031
0.00274765
-0.00073503
0.00273675
-0.0031789
-0.00078238
0.00269185
0.00286761
-0.00081318
0.002013
-0.0028243
0.0008521
-0.00084702
0.00285128
-0.0027941
0.00077
-0.00075731
0.00275335
-0.0027533
0.0001783
0.00069498
-0.00283892
-0.00080587
0.00277203
0.00278119
-0.00077507
0.00204616
0.00275653
-0.00074483
-0.00069576
0.00272791
0.00269794
-0.00076215
0.00194063
0.00284178
-0.00081569
0.00200091
-0.0028845
0.0007813
0.0007343
-0.0026782
-0.00209
-0.00078262
0.00275817
-0.0003897
-0.0027515
-0.0027466
0.0008067
-0.0029381
0.0008578
0.00263599
-0.00069466
-0.0027833
0.0007785
-0.0027396
0.00074
0.00283981
-0.00084388
0.00199279
-0.00087551
0.00256072
-0.0027649
0.0007603
0.0007401
-0.002768
-0.00204
0.00227016
0.00278832
-0.00074905
0.00200594
0.0007317
-0.0026967
-0.0020332
-0.00270759
0.00075838
-0.00201261
-0.00198822
0.0007927
-0.0027514
0.0007901
-0.0027847
-0.002004
-0.0027407
0.0007154
0.0007912
-0.0027907
0.0007945
-0.0028001
-0.00209
0.0008484
-0.0029248
0.00287316
-0.00083062
0.000818
-0.0028044
-0.0019362
-0.00279162
0.00099166
-0.0017304
-0.00285815
0.0008804
-0.00186649
-0.002914
0.0008824
-0.0020336
-0.0029285
0.000961
-0.0020461
-0.0029519
0.0010792
-0.0019909
-0.0030305
0.0009082
-0.0019513
-0.0029843
0.0009767
-0.0020761
-0.0029066
0.0009398
-0.0019299
-0.0029598
0.0009056
-0.00202
-0.0029726
0.0010191
-0.002067
-0.0029711
0.0009823
-0.001952
-0.0029704
0.0009478
-0.0019881
-0.0029442
0.0010353
-0.0019964
-0.0030044
0.000935
-0.0019691
-0.0029772
0.0009729
-0.0020422
-0.0029948
0.0010026
-0.0020219
-0.0029504
0.000907
-0.0019478
-0.0028849
0.0009381
-0.0019779
-0.0029802
0.0010381
-0.0020421
-0.003029
0.0009475
-0.0019909
-0.0030075
0.0010039
-0.00206
-0.0029648
0.0010243
-0.0019609
-0.0030217
0.0009598
-0.0019974
-0.0029416
0.0010496
-0.0019818
-0.0030102
0.0009529
-0.0019606
-0.0029954
0.0008715
-0.0020425
-0.0029547
0.0010673
-0.0020832
-0.0029954
0.0009686
-0.0019281
-0.002992
0.0009536
-0.0020234
-0.0029388
0.0010368
-0.0019852
-0.0030076
0.00094
-0.0019708
-0.0029812
0.0009742
-0.0020412
-0.0029725
0.0010181
-0.0019983
-0.0029353
0.0009184
-0.0019172
-0.0028659
0.0009466
-0.0019475
-0.0028929
0.000935
-0.0019463
-0.002878
0.0008372
-0.001943
-0.002962
0.0009115
-0.0021248
-0.0029638
0.0009359
-0.0020523
-0.003077
0.0009124
-0.0021411
-0.0032565
0.0012886
-0.0023441
-0.0035594
0.0021557
-0.0022708
-0.0028438
0.0008004
-0.0019917
-0.0020634
-0.0028777
0.000789
-0.0020293
-0.0019643
0.0007743
-0.0028379
-0.0020104
0.00282923
-0.00087375
0.00200927
0.00273288
-0.00073884
0.00203712
0.0007726
-0.0028473
-0.0021522
-0.0028784
0.0007887
-0.0020717
-0.0020157
-0.000729
0.00275903
0.00202753
0.00197641
-0.00080181
0.00280677
0.00207135
0.00203646
-0.00078713
0.00280635
0.00206415
0.00200048
-0.00274418
0.00207638
0.0007757
0.00186029
0.0028736
0.00276953
-0.00080106
-0.0033106
0.0029209
0.00075434
0.00197357
0.00278206
-0.0018977
0.00199696
-0.0020452
-0.00080618
0.00278668
-0.0025732
0.00193766
0.00204807
-0.00069559
-0.00073974
0.00270723
-0.002066
0.00269344
-0.000737
0.00200791
0.00201991
0.00193891
0.00068688
0.0020998
0.00263349
0.0019624
0.0019546
0.000258
0.00203581
0.00199975
0.00079516
0.00196301
0.00281992
0.00279738
-0.00080821
0.00192363
0.0007903
-0.0027454
-0.0021478
0.00274012
-0.00097462
0.000791
-0.002753
0.00218743
-9.135e-05
-0.0019923
-0.0027148
0.0007641
-0.00198
-0.0027875
0.0008046
0.0007403
-0.0027065
-0.0019379
-0.001969
0.00131192
-0.0019634
-0.0020089
0.00179374
0.0007624
-0.0027658
-0.0027381
0.0007544
0.00275301
-0.00091132
0.0007443
-0.0027037
0.0007644
-0.0027865
-0.00077515
0.00273717
0.00204477
0.00192399
0.0008246
-0.0028916
-0.0019208
-0.0019343
0.00199626
0.0008163
-0.0027928
-0.0020753
-0.0019778
0.00266925
-0.00065594
0.00197459
0.00274765
-0.00069892
0.00190377
0.00292382
-0.00088346
0.00226788
0.0027566
-0.0019781
0.0007016
-0.0019637
0.0015861
-0.0018952
-0.0019755
-0.0020263
-0.0019964
-0.001997
-0.0019337
-0.0020711
-0.0026862
0.0007107
-0.00066967
0.00270548
-0.0026177
0.000654
0.00276712
-0.00060361
-0.00069974
0.00281878
0.00206738
-0.00077307
0.00288652
0.00204571
-0.00081934
0.00276182
0.00206718
-0.00082997
0.00281489
0.00193185
-0.00087502
0.00288354
0.00193987
-0.00083639
0.00283411
0.00204715
-0.00083521
0.00278828
0.0019989
-0.00078984
0.00279055
0.00199844
-0.00080958
0.00280882
0.00198097
-0.00082156
0.00277006
0.00198726
-0.00075366
0.00282575
0.0020164
-0.00084167
0.00284747
0.00198408
-0.00083009
0.00277364
0.00201738
-0.00077747
0.00278646
0.00199617
-0.00081344
0.00283496
0.00197302
-0.00086954
0.00289476
0.00196542
-0.00083368
0.00283475
0.00206108
-0.00084141
0.00279336
0.00199334
-0.00086943
0.00288979
0.00192393
-0.00081231
0.00281253
0.00207748
-0.00085931
0.00289896
0.00195322
-0.00084148
0.00286155
0.00205748
-0.00083305
0.00282824
0.0020285
-0.00083608
0.0027848
0.00199216
-0.00079214
0.0027889
0.00199266
-0.00081282
0.00280869
0.00197608
-0.00082708
0.0027725
0.00198161
-0.00076774
0.0028336
0.00200476
-0.00087401
0.00287225
0.00195959
-0.00088948
0.00295717
0.00198277
-0.00087067
0.00281229
0.0020865
-0.00084492
0.00283111
0.00196737
-0.00088172
0.00288199
0.00194939
-0.00084956
0.00281336
0.00203243
-0.00086673
0.00273532
0.00194663
-0.00081007
0.00275508
0.00192525
-0.00086584
0.00281084
0.00188924
-0.00078417
0.00272601
0.00202667
-0.00035424
0.00211461
0.00237177
0.00312127
-0.00153517
-0.0023375
-0.0009731
-0.00074484
0.00271841
-0.0027534
0.0006634
-0.00071252
0.00265315
-0.0007296
0.00277576
-0.00078658
0.00274118
-0.0009072
-0.001666
-0.0032447
-0.0026896
0.0007118
-0.0026315
0.0007363
-0.00081577
0.00277817
-0.00069809
0.00274616
-0.00081038
0.00288676
-0.0027188
0.0006528
0.0007695
-0.0028147
0.00281181
-0.0008039
0.00199604
0.00217881
0.0027404
-0.00073949
0.00193002
0.0006826
-0.0026516
-0.0028063
0.0007352
0.00271952
-0.00072256
0.00198992
0.00274387
-0.00080621
0.00200438
-0.0026673
0.0007336
0.00269389
-0.00068089
0.0019958
0.00276937
-0.00074946
0.00205685
-0.0026934
0.0007512
0.0007204
-0.0027004
-0.0019658
0.0006843
-0.0026932
-0.00284746
0.001964
0.00087138
0.00188163
-0.00106722
0.00306348
-0.00076725
0.00277319
0.00211951
0.00170597
0.0006631
-0.0026963
-0.0020265
0.0006689
-0.0026729
-0.0019984
-0.00254119
0.00162987
0.0006998
-0.0026341
-0.0019965
-0.0019534
-0.00070977
0.00267377
-0.0020416
0.00285019
-0.00096856
0.00214042
-0.00077354
0.0007304
-0.0027268
-0.0020759
-0.0015779
0.00337164
0.00154337
0.0006898
-0.0027002
-0.0019831
0.00279847
-0.00079872
0.00201189
0.00058811
-0.0024546
-0.0027736
0.00074
-0.00218549
-0.0028935
0.0008474
-0.0021535
-0.0028528
0.0008619
-0.0020054
-0.0028813
0.00093
-0.0020194
-0.002948
0.0008719
-0.002018
-0.0028067
0.0008768
-0.0019348
-0.0029677
0.0009477
-0.0020909
-0.00298
0.000913
-0.0020323
-0.0028207
0.0008687
-0.0019077
-0.002856
0.0008679
-0.0019873
-0.0029243
0.0009279
-0.0020564
-0.0028606
0.0008915
-0.0019327
-0.0029196
0.0008774
-0.0020281
-0.0028599
0.000838
-0.0019825
-0.0027871
0.0008393
-0.0019491
-0.0028953
0.0009174
-0.002056
-0.0029275
0.0008854
-0.0020101
-0.0028996
0.0009087
-0.0020142
-0.002932
0.000872
-0.0020233
-0.0028203
0.0008594
-0.0019483
-0.0028719
0.0008745
-0.0020125
-0.0028987
0.0009169
-0.0020242
-0.0028316
0.000871
-0.0019147
-0.0028848
0.0008423
-0.0020138
-0.0029813
0.0008981
-0.002139
-0.002828
0.0008999
-0.0019299
-0.0029208
0.0008974
-0.0020209
-0.0029106
0.0009254
-0.0020132
-0.0028565
0.0008857
-0.0019311
-0.0029329
0.0008917
-0.0020472
-0.0028395
0.0008412
-0.0019478
-0.0027684
0.0008512
-0.0019272
-0.0028537
0.0009062
-0.0020025
-0.0027654
0.0008191
-0.0018592
-0.0028231
0.0008801
-0.002004
-0.0028679
0.0007431
-0.0019878
-0.0026955
0.0006432
-0.0019524
-0.0028388
0.0006977
-0.0021956
-0.003126
0.0007819
-0.0024283
-0.0032439
-0.00082245
0.00282156
0.00205115
0.00201335
0.00271773
-0.00070846
0.00204806
0.0007545
-0.0026907
-0.0019459
0.00278724
-0.00075012
0.0020424
0.0006605
-0.0027505
-0.0020583
0.0006934
-0.0027334
-0.0019243
-0.00070541
0.0026982
-0.0019307
0.00193457
0.00197704
-0.00070486
0.00268127
-0.0028346
0.0007629
-0.0020662
-0.002947
0.0009177
0.00184694
0.00057874
0.00209503
0.00284662
0.0006777
-0.0027193
-0.002462
-0.0036303
0.002671
-0.0019592
0.000674
-0.00281189
0.00184333
0.00196895
0.0007035
0.00204266
0.0028033
-0.0021407
0.00280093
-0.00076447
0.00199703
0.0007336
-0.0026715
-0.0020198
0.0026909
-0.0019557
0.0006646
0.0026564
-0.0019738
0.000693
0.000791
-0.0027118
0.00266658
-0.00074295
0.00195812
-0.0019932
-0.002779
0.0006312
-0.001988
-0.0020003
-0.00075813
0.00269704
0.0026872
-0.0020238
0.0006955
0.00199106
-0.0026137
0.0006214
-0.0020049
0.00270382
-0.00077983
0.00202293
-0.00290603
0.00230242
-0.00069639
0.00105087
-0.0026758
0.0007224
-0.0019801
-0.00282232
0.0008341
-0.00177145
-0.0020005
-0.00118202
-0.0020286
0.00194735
-0.0019651
-0.00072524
0.00275277
0.00205293
0.00204791
-0.00135578
-0.00109882
-0.00308618
-0.0027232
0.0006598
-0.0020277
-0.0019918
-0.0018774
-0.00068588
0.00275723
0.00201116
0.00199276
-0.00072646
0.00258675
-0.0026823
0.000607
-0.0020046
-0.0021048
0.00270487
-0.00070439
0.00198231
-0.002772
0.0006198
-0.00071836
0.00269295
0.00212826
0.00196649
0.00264134
-0.00073757
0.00193593
-0.0019969
-0.002735
0.0007193
-0.0019721
-0.0019714
0.00070653