/*--------------------------------*- C++ -*----------------------------------*\
  =========                 |
  \\      /  F ield         | OpenFOAM: The Open Source CFD Toolbox
   \\    /   O peration     | Website:  https://openfoam.org
    \\  /    A nd           | Version:  7
     \\/     M anipulation  |
\*---------------------------------------------------------------------------*/
FoamFile
{
    version     2.0;
    format      ascii;
    class       volScalarField;
    location    "0.55";
    object      T;
}
// * * * * * * * * * * * * * * * * * * * * * * * * * * * * * * * * * * * * * //

dimensions      [0 0 0 1 0 0 0];

internalField   nonuniform List<scalar> 
5936
(
0.509388
0.913124
0.999003
0.982342
1.00586
1.01594
1.00206
1.00701
1.00021
1.00101
0.999887
0.999757
0.99995
0.999843
0.999998
0.999979
1
1
0.999999
0.999998
0.999999
0.999996
0.999999
0.999998
1
1
1
1
1
1
1
1
1
1
1
1
1
1
1
1
1
1
1
1
1
1
1
1
1
1
1
1
1
1
1
1
1
1
1
1
1
1
1
1
1
1
1
1
1
1
1
1
1
1
1
1
1
1
1
1
1
1
1
1
1
1
1
1
1
1
1
1
1
1
1
1
1
1
1
0.116255
-0.00308433
-0.000220626
4.08821e-05
-3.1271e-07
4.1685e-07
-4.3223e-09
-1.39688e-08
2.88377e-09
1.13151e-11
-6.99144e-11
1.0497e-11
1.08094e-12
-3.00833e-13
-2.37079e-14
1.61974e-15
4.42518e-16
3.86782e-17
-1.0999e-18
-3.28352e-19
-2.16996e-20
6.97237e-23
8.4654e-23
5.06137e-24
-7.89645e-41
2.73231e-25
-5.88885e-24
-1.0241e-21
-1.44377e-20
-2.64731e-19
-2.72496e-18
-1.30152e-16
-6.17781e-16
1.01221e-16
-1.1371e-13
-1.42993e-12
3.3945e-13
2.34515e-11
-1.17059e-10
3.01703e-10
3.91279e-09
-3.2796e-09
2.72428e-09
-6.57362e-08
1.94909e-08
4.56151e-07
-4.51959e-07
2.27063e-06
4.42349e-06
7.43778e-06
1
1
1
1
1
1
1
1
1
1
0.999999
1
0.999998
0.999998
1.00001
1.00001
0.99999
1
0.999953
0.999961
1.00002
0.999987
1.00013
1.0001
1.00014
1.00017
0.999642
0.999823
0.999127
0.999266
0.999907
0.999589
1.00224
1.00138
1.00485
1.00389
1.0046
1.0047
0.996024
0.999136
0.972206
0.980419
0.927005
0.941819
0.858961
0.881211
0.769897
0.797763
0.670698
0.700887
0.562706
0.595556
0.456491
0.488171
0.359594
0.387845
0.273506
0.298529
0.202311
0.222768
0.145827
0.161551
0.102069
0.114164
0.0692303
0.0782062
0.0460653
0.0523626
0.0295179
0.0339171
0.0187738
0.021629
0.0116551
0.0135466
0.00700058
0.00821763
0.00420457
0.00494195
0.00244254
0.00290376
0.00138641
0.00165832
0.000794911
0.000949949
0.000439091
0.000531535
0.000243855
0.000296824
0.00012971
0.000161792
7.09519e-05
8.98506e-05
3.91689e-05
5.01413e-05
1.75886e-05
9.79436e-06
2.31885e-05
3.49427e-25
5.73128e-06
0.0134562
-0.00159039
6.86189e-05
7.16044e-06
1.01278e-07
1.83231e-07
-3.61221e-08
7.19574e-10
1.1463e-09
-1.71601e-10
-2.19327e-12
5.62935e-12
-2.99836e-13
-1.12663e-13
-1.28418e-15
1.05914e-15
1.50133e-16
4.8905e-18
-8.91129e-19
-9.53583e-20
-3.06262e-21
2.09875e-22
2.36001e-23
-0.000922382
8.85031e-25
7.87773e-06
4.6799e-24
1.44952e-23
3.96993e-21
1.07943e-19
6.02709e-20
2.80515e-17
4.22697e-16
-3.56558e-16
1.70926e-14
5.10625e-13
2.25183e-12
-1.22343e-11
1.27698e-11
1.68921e-10
-2.12312e-09
-6.6692e-10
-1.00627e-08
9.99817e-08
-2.59112e-07
3.00541e-07
-3.47715e-07
6.35719e-07
4.24822e-06
0.000131136
0.0664675
1.98353e-06
0.457247
0.000144101
3.03965e-05
6.54107e-07
5.36079e-07
-9.95933e-08
6.90257e-10
3.488e-09
-4.62952e-10
-1.2334e-11
1.77297e-11
-8.38298e-13
-4.00598e-13
-7.98669e-15
3.73144e-15
5.30672e-16
2.18647e-17
-3.09293e-18
-3.56994e-19
-1.39984e-20
6.75435e-22
9.13063e-23
3.67606e-24
-1.7101e-24
4.20553e-21
9.72755e-20
-3.4119e-20
2.48227e-17
4.00339e-16
-1.32625e-16
1.70597e-14
4.87796e-13
2.36931e-12
-1.07709e-11
3.40493e-12
1.55132e-10
-1.997e-09
-5.02715e-10
-1.09921e-08
1.03925e-07
-2.94009e-07
3.77918e-07
-3.86795e-07
9.72506e-07
5.46894e-06
5.05749e-24
1.14945e-06
4.22611e-09
-4.17727e-08
7.50804e-09
1.80147e-10
-2.15192e-10
2.94773e-11
3.8578e-12
-9.55017e-13
-9.51497e-14
5.23578e-15
1.61774e-15
1.48471e-16
-2.47343e-18
-1.22717e-18
-8.55647e-20
-4.4099e-22
3.03851e-22
2.02187e-23
-1.06462e-21
-1.09947e-20
-2.63044e-19
-2.06867e-18
-1.17303e-16
-6.78115e-16
-5.45157e-16
-1.06941e-13
-1.41142e-12
-4.88393e-13
2.43598e-11
-9.58062e-11
2.35202e-10
3.92823e-09
-4.3489e-09
1.02272e-08
-8.66012e-08
2.63764e-08
5.03851e-07
-4.48206e-07
3.137e-06
5.99593e-06
-0.0055644
-0.00532448
-1.28346e-23
0.596807
-0.00118086
0.957427
1.0026
0.985737
1.00456
1.0082
1.00136
1.00401
0.999967
1.00053
0.999869
0.999794
0.999989
0.999958
1.00002
1.00005
1.00001
1.00003
1
1.00001
0.999998
0.999998
0.999999
0.999998
1
1
1
1
1
1
1
1
1
1
1
1
1
1
1
1
1
1
1
1
1
1
1
1
1
1
1
1
1
1
1
1
1
1
1
1
1
1
1
1
1
1
1
1
1
1
1
1
1
1
1
1
1
1
1
1
1
1
1
1
1
1
1
1
1
1
1
1
1
1
1
-3.16181e-23
0.00151943
6.23956e-05
0.260823
-5.70173e-06
5.29147e-08
2.92065e-07
-5.93849e-08
1.65494e-09
1.50794e-09
-2.49026e-10
6.85162e-13
9.81329e-12
1.81463e-14
-1.70066e-13
-1.36189e-14
3.44528e-16
1.74495e-16
1.41669e-17
3.369e-20
-7.38608e-20
-5.18224e-21
-5.93531e-23
1.24643e-23
-1.13274e-21
-0.00316852
-0.00458951
-0.0032785
9.43715e-25
1.27397e-05
2.10514e-05
-3.68899e-06
-8.98118e-06
-1.31917e-06
0.532986
-7.68228e-21
-4.32823e-19
-8.7494e-19
-1.37132e-16
-1.20612e-15
3.4895e-16
-1.21293e-13
-2.05147e-12
-3.08839e-12
4.00039e-11
-1.1738e-10
5.46608e-11
6.61771e-09
-7.74533e-09
3.44568e-08
-2.2002e-07
2.09188e-07
5.99584e-07
-3.45889e-07
5.88676e-06
8.63186e-06
1.48017e-05
0.0517236
0.189634
0.0225263
-9.55515e-05
-0.000690298
4.3971e-05
1.58803e-05
-6.93628e-06
1
1
1
1
1
1
1
1
1
1
0.999999
0.999998
1.00001
1.00001
0.999992
1.00001
0.999962
0.999962
1.00002
0.999984
1.00012
1.00009
1.00012
1.00019
0.999634
0.999843
0.999213
0.999244
1.00005
0.999477
1.00218
1.00118
1.00441
1.00375
1.00402
1.00553
0.995601
1.0014
0.971954
0.98504
0.927114
0.949048
0.860932
0.891221
0.772803
0.811203
0.672186
0.71271
0.56627
0.60795
0.461826
0.502623
0.36338
0.400653
0.277011
0.307988
0.206298
0.231594
0.147765
0.168203
0.103175
0.118278
0.0707853
0.081917
0.0468668
0.0546659
0.030198
0.0356255
0.0191876
0.0226829
0.011946
0.0142297
0.00725989
0.00875502
0.00435014
0.00525288
0.0025416
0.00309041
0.00145744
0.00178946
0.000824746
0.00101077
0.000460936
0.000568371
0.000262015
0.000322024
0.000146183
0.000180918
8.85766e-05
0.000110687
0.780431
7.86208e-24
0.830481
-3.31526e-23
6.15255e-16
5.33552e-16
4.1527e-05
-1.07997e-22
4.20307e-24
-1.24879e-15
7.6883e-07
-1.94081e-08
-2.1036e-08
4.24478e-09
-5.37736e-11
-9.54527e-11
1.77619e-11
2.59959e-12
-3.269e-13
-5.7264e-14
-1.80599e-15
3.494e-16
6.00676e-17
2.1563e-18
-1.46817e-19
-2.29085e-20
-8.55959e-22
2.58392e-23
-1.63668e-21
3.36911e-17
2.50776e-17
1.39074e-19
1.11216e-19
6.31609e-21
-4.39303e-19
7.60162e-21
-1.00902e-19
-1.67035e-16
1.42837e-06
2.14689e-16
1.65911e-14
6.17957e-13
3.96256e-12
-1.1846e-11
-1.68627e-11
2.83879e-10
-2.64487e-09
-2.96388e-09
-1.2731e-08
1.41177e-07
-4.24181e-07
6.50744e-07
-8.58991e-07
2.33983e-06
9.21294e-06
-1.14932e-07
-4.598e-13
9.20982e-13
-8.0257e-23
2.50366e-11
4.99439e-05
-3.43791e-11
6.89927e-06
-4.85409e-07
7.5138e-07
1.69061e-07
-2.1999e-07
3.45476e-08
-8.79744e-09
7.02554e-09
2.14232e-10
-1.19519e-10
4.13675e-11
-2.88299e-12
3.69382e-23
-4.01866e-22
-1.80675e-20
-1.9155e-19
7.9541e-19
4.98264e-17
4.38454e-16
7.50413e-17
-4.72188e-14
1.10307e-05
2.50222e-06
-9.14363e-07
7.39807e-07
-5.07409e-07
1.67662e-07
-1.66391e-08
-2.00531e-09
-3.14576e-09
2.65317e-10
-1.0217e-11
-1.35193e-11
4.3019e-12
7.59772e-13
2.71087e-14
-2.50582e-19
3.71597e-23
-3.40813e-21
-7.14664e-20
-2.77701e-19
9.11706e-18
1.75188e-16
8.34794e-16
-7.99763e-15
-1.71091e-13
-6.77515e-13
8.52465e-12
3.29941e-11
-2.65408e-10
4.88293e-10
8.29196e-09
-6.14186e-08
7.24654e-08
1.52472e-16
-4.65846e-10
4.38097e-09
-5.27182e-09
8.4798e-07
-1.10452e-20
-2.37428e-12
-2.03636e-18
-1.61863e-13
-1.15708e-15
8.0518e-05
7.31799e-16
0.994132
1.00615
1.00363
1.00319
1.00652
1.00017
1.00137
0.999567
0.999319
0.99981
0.999466
0.999986
0.999885
1.00002
1.00003
1.00001
1.00003
1
1
0.999999
0.999998
0.999999
0.999998
1
1
1
1
1
1
1
1
1
1
1
1
1
1
1
1
1
1
1
1
1
1
1
1
1
1
1
1
1
1
1
1
1
1
1
1
1
1
1
1
1
1
1
1
1
1
1
1
1
1
1
1
1
1
1
1
1
1
1
1
1
1
1
1
1
1
1
3.02928e-17
-3.73475e-12
-3.11474e-12
6.64373e-05
-3.71269e-21
9.0122e-16
6.78861e-13
8.39235e-07
5.41941e-07
1.64961e-06
-5.1584e-08
-1.64344e-08
3.89932e-09
1.18034e-05
-3.02614e-10
3.18551e-05
-1.04816e-10
-4.96042e-11
-2.21574e-22
1.04644e-11
3.68375e-12
1.10418e-11
2.71679e-12
1.80741e-05
-8.64607e-14
-1.52011e-14
-6.83186e-16
6.22995e-17
9.29507e-18
4.20928e-19
-1.82832e-20
-2.8347e-21
-3.64461e-06
-7.59378e-07
9.06676e-10
-1.21179e-10
1.13062e-20
-6.95275e-21
-1.91924e-15
-1.92505e-15
6.44049e-16
-6.84364e-19
-1.57573e-13
-1.63319e-16
-1.9995e-16
8.52315e-16
1.29951e-19
-6.8424e-19
0.000171363
0.00019327
2.71071e-14
-2.12392e-13
2.40984e-19
4.0282e-17
8.49819e-13
1.04573e-12
-3.56695e-12
-7.86617e-12
6.02084e-11
-1.00809e-10
-1.98627e-10
1.10428e-08
-1.38299e-08
8.20489e-08
-4.74884e-07
5.59728e-07
7.03181e-07
2.38931e-07
5.56103e-06
1.34461e-05
2.4141e-07
2.46509e-08
1
1
1
1
1
1
1
1
0.999999
0.999998
1.00001
1
0.999999
1.00001
0.999969
0.999971
1.00001
0.999981
1.00009
1.00006
1.00013
1.00017
0.999715
0.999897
0.999308
0.999341
0.999936
0.999472
1.00168
1.0008
1.00386
1.00318
1.00438
1.00545
0.997948
1.00299
0.977134
0.989588
0.936486
0.95721
0.874285
0.902974
0.789713
0.827484
0.690624
0.730927
0.584802
0.627959
0.479845
0.520587
0.381659
0.418782
0.291528
0.325043
0.216708
0.242694
0.15736
0.178181
0.110622
0.126677
0.0756779
0.0872751
0.0504968
0.0587493
0.0327262
0.0385899
0.0206633
0.0244479
0.0129784
0.0154129
0.00800382
0.00961347
0.00478929
0.00577969
0.00281244
0.00343033
0.00161156
0.00197746
0.000917162
0.00112637
0.000509784
0.000631044
0.00028775
0.000351278
0.000166122
0.000202149
-3.06422e-10
-6.51911e-10
-3.05917e-10
2.23554e-05
3.51768e-05
1.68938e-19
-7.89563e-23
2.65316e-11
1.55309e-11
-0.00209076
-2.24172e-22
0.92558
7.74448e-07
7.36831e-05
-1.12938e-22
2.00127e-13
-3.20311e-14
2.15455e-05
3.14374e-09
-1.24377e-07
-6.14555e-08
-5.60974e-08
3.40532e-09
2.37705e-11
-1.78338e-13
-4.47875e-14
-3.82391e-15
4.52388e-18
3.0218e-17
2.28487e-18
2.54693e-20
-9.23438e-21
-1.17184e-21
0.00947254
2.75021e-05
-1.0899e-05
-1.13237e-05
7.19096e-12
6.55375e-12
0.959572
-2.80792e-19
-2.75154e-16
-4.1904e-11
-5.01362e-11
-1.06768e-11
-1.16283e-10
-1.33885e-11
4.10723e-10
-3.60008e-09
-7.20548e-09
-1.39097e-08
1.90658e-07
-6.2921e-07
1.1486e-06
-1.67501e-06
6.09547e-06
0.0767339
0.0425133
0.000108142
-2.29322e-20
8.85492e-07
2.95595e-05
-1.96081e-05
-3.66539e-08
9.56691e-07
5.11854e-07
-4.91895e-07
8.60013e-08
-1.61989e-08
1.3159e-20
-8.45917e-21
-1.80222e-06
1.31905e-06
-7.74279e-07
-0.00337853
0.000562472
-0.00375685
2.39188e-07
0.684452
-2.06685e-08
-5.68925e-09
-4.49862e-09
-2.42036e-20
2.12142e-19
7.47524e-18
7.62155e-17
-2.74869e-16
-1.27938e-14
-2.36215e-09
-6.25675e-22
-0.000220652
-0.000990867
0.00020526
-6.79739e-19
0.78693
-4.57069e-22
-1.11258e-13
1.63115e-18
2.84928e-17
-2.19474e-21
1.07164e-16
7.65973e-09
-2.73084e-15
-4.53318e-14
-1.77777e-21
-7.67181e-12
3.7887e-10
3.95449e-14
-7.35375e-19
-2.35186e-15
6.11299e-11
1.18414e-08
4.36909e-11
0.322933
-1.21882e-10
1.0091
1.00853
1.01706
1.00223
1.00742
0.999796
1.00081
0.999654
0.999394
0.999897
0.999686
1.00001
0.999964
1.00002
1.00003
1.00001
1.00002
0.999999
1
0.999999
0.999998
1
0.999999
1
1
1
1
1
1
1
1
1
1
1
1
1
1
1
1
1
1
1
1
1
1
1
1
1
1
1
1
1
1
1
1
1
1
1
1
1
1
1
1
1
1
1
1
1
1
1
1
1
1
1
1
1
1
1
1
1
1
1
1
1
1
1
-2.37756e-06
-3.82416e-22
4.72134e-10
3.12924e-19
7.89461e-11
-6.54298e-19
-6.75688e-08
-7.3733e-15
5.60516e-05
3.21004e-21
-3.12596e-10
-3.36725e-10
-1.52704e-11
8.7822e-13
2.18224e-07
3.74465e-18
3.20113e-05
-1.73252e-22
-3.82275e-15
-1.4839e-14
-1.77315e-14
-6.72961e-09
-1.0968e-16
7.94999e-18
8.92895e-18
1.23581e-18
9.95165e-19
-2.78424e-06
1.05567e-11
-1.50278e-11
3.46965e-09
4.23934e-05
1.08078e-21
-8.25323e-16
0.00016628
-2.02893e-13
3.68863e-17
2.83933e-12
2.65251e-12
0.873027
1.71886e-08
-6.6108e-11
4.24062e-10
0.211792
5.39655e-20
2.66734e-20
-4.75079e-09
1.86293e-08
2.04675e-20
2.31018e-20
6.01257e-21
-2.27133e-08
1.6607e-07
2.84685e-07
-8.4722e-07
1.86061e-06
6.48507e-07
-3.14976e-06
1.23413e-05
7.45682e-07
-1.04282e-18
-1.49266e-18
1
1
1
1
1
1
0.999999
0.999998
1
1
1
1.00001
0.999972
0.999979
0.999995
0.999974
1.00007
1.00003
1.00014
1.00016
0.999781
0.999965
0.999378
0.999453
0.999803
0.999447
1.00118
1.00035
1.00332
1.00249
1.0048
1.00533
1.0004
1.00486
0.983047
0.994129
0.946838
0.966015
0.887994
0.916994
0.806588
0.843756
0.71079
0.751586
0.60603
0.650421
0.500375
0.542012
0.401231
0.440436
0.307806
0.344486
0.228507
0.257067
0.167707
0.19028
0.118111
0.135858
0.0811092
0.0937858
0.0545582
0.0638622
0.0353388
0.0418532
0.0225416
0.0267544
0.0142362
0.0170029
0.0087838
0.0105731
0.00533014
0.00645148
0.00314791
0.00385357
0.00180925
0.00223181
0.00103515
0.00127707
0.000575962
0.000718937
0.00031852
0.000394635
0.000173286
0.000210746
-4.74772e-12
-6.87927e-12
7.97107e-11
2.28292e-05
2.717e-05
3.71153e-05
-7.54601e-09
1.8427e-07
-1.06149e-05
-9.1295e-06
-6.58504e-16
-4.70933e-16
2.17498e-06
1.40045e-05
1.15258e-19
1.6803e-19
-1.05817e-18
5.63506e-09
5.47897e-09
8.03045e-09
1.39248e-07
6.00988e-07
-2.2663e-08
1.61402e-13
6.56376e-13
7.29018e-14
-1.76251e-21
2.20945e-19
0.000386234
0.000200573
9.13929e-07
7.94193e-05
-5.09328e-17
-7.78937e-19
0.000127863
-2.28613e-14
-1.59736e-08
-2.27425e-11
4.47654e-05
3.40332e-18
-9.59668e-11
-2.29265e-21
-4.74294e-08
1.9642e-06
-2.54243e-15
-1.03033e-07
1.11154e-17
1.57515e-06
-2.79036e-12
6.18763e-12
-3.31812e-08
-2.14716e-15
0.000128695
1.43659e-07
-7.08606e-15
2.58201e-09
5.53934e-10
-8.35842e-06
-1.99303e-05
1.8508e-15
-2.75439e-15
0.97501
4.17569e-14
0.658389
-2.61853e-13
3.17954e-18
2.40555e-18
-1.01227e-10
-4.54009e-12
1.12142e-11
-8.79691e-11
0.739487
-7.59607e-11
9.33029e-07
1.00093
-6.45921e-10
-1.53817e-08
0.0211096
-9.40077e-07
1.26597e-06
-3.95624e-10
-3.18471e-10
-6.62445e-10
-2.69701e-15
1.26599e-15
-6.00917e-09
-2.47327e-21
9.50172e-16
-2.6409e-15
-1.34739e-08
-0.00115441
-0.000199003
6.20268e-12
6.97687e-12
-0.00506771
-0.00383963
1.40884e-12
1.10862e-12
-3.96464e-10
0.91765
5.77851e-14
4.91347e-17
2.18348e-06
-1.0989e-06
-2.76245e-08
-1.01292e-06
1.25496e-06
4.765e-17
-8.07994e-06
-1.42923e-09
1.00927
1.00429
1.00996
1.0005
1.00288
0.999622
0.999814
0.999768
0.999512
0.999959
0.999821
1.00002
1
1.00001
1.00003
1
1.00001
0.999999
0.999999
0.999999
0.999998
1
0.999999
1
1
1
1
1
1
1
1
1
1
1
1
1
1
1
1
1
1
1
1
1
1
1
1
1
1
1
1
1
1
1
1
1
1
1
1
1
1
1
1
1
1
1
1
1
1
1
1
1
1
1
1
1
1
1
1
0.705216
0.000114419
-3.67855e-16
-2.61083e-11
-1.27231e-17
2.00006e-14
-2.59599e-15
6.33272e-05
0.000110602
-3.10377e-08
6.61962e-14
-8.26424e-08
-2.54813e-10
5.13819e-19
7.22902e-06
2.02966e-08
1.17805e-08
-1.07459e-07
0.323259
1.09024e-18
1.20395e-18
-1.63048e-10
2.59901e-06
1.38561e-13
9.02967e-14
1.86916e-19
1.72082e-18
-1.79796e-06
-3.01379e-10
-5.0416e-10
-8.52561e-17
-5.57484e-17
-1.92426e-16
9.45224e-18
6.40728e-17
9.08447e-08
-0.0092957
0.00117502
4.67734e-20
1.57126e-19
4.59866e-19
1.2635e-19
2.64399e-08
-2.77594e-08
1.71999e-07
-1.92677e-06
0.0676589
-6.01793e-09
2.93332e-08
-2.21794e-16
-0.00541554
0.000585028
9.99344e-16
0.0712045
0.0315684
0.109768
-1.017e-06
2.66804e-06
0.882953
0.720368
3.17431e-07
2.87158e-07
-1.58758e-15
-4.11881e-15
1
1
1
0.999999
0.999999
1
1
1.00001
1.00001
0.999978
0.999988
0.999986
0.999971
1.00004
1
1.00013
1.00014
0.999864
1.00004
0.999489
0.999592
0.999702
0.999437
1.00064
0.99993
1.00269
1.00171
1.00509
1.00498
1.00287
1.00625
0.989054
0.998566
0.957248
0.975532
0.903243
0.931028
0.827363
0.864242
0.733973
0.776604
0.630649
0.676471
0.524957
0.569152
0.423086
0.46512
0.3292
0.367718
0.246633
0.278305
0.180586
0.205239
0.128245
0.147666
0.0886332
0.102705
0.0598427
0.0700601
0.0392839
0.0465682
0.0251087
0.0300167
0.0158567
0.0190541
0.00991162
0.0119465
0.00604905
0.00735996
0.00357758
0.0043978
0.00210012
0.00259773
0.00119889
0.00149943
0.000670279
0.000848318
0.000373229
0.000478131
0.0001857
5.27675e-05
0.000174639
1.2424e-05
-1.54562e-05
-1.96805e-05
-1.44926e-18
8.90832e-18
-1.16949e-15
-1.0456e-15
-4.45243e-06
6.84913e-06
4.10347e-10
-1.05589e-09
2.53749e-12
3.5624e-07
1.25571e-11
7.22999e-15
9.89818e-10
5.66494e-20
-5.19355e-06
4.51415e-05
-5.3133e-18
-0.0110106
-0.00772794
1.00791e-15
0.000250658
5.77611e-05
7.56488e-05
-4.40189e-08
-3.43737e-08
0.18927
-2.86144e-16
-2.77364e-10
-1.0536e-10
9.94807e-09
4.9616e-07
2.71808e-07
1.56776e-11
-2.58436e-11
3.41707e-06
2.84652e-06
5.89642e-12
2.18926e-11
2.72738e-15
1.66132e-05
-1.37124e-05
-1.40576e-06
3.36311e-16
-3.12952e-15
8.84568e-14
-5.85936e-07
7.46231e-12
1.14764e-11
-2.81868e-15
-2.57755e-13
-5.14833e-12
4.35691e-10
-2.13931e-10
1.00726
0.992244
3.56679e-20
-1.93995e-16
-7.86376e-09
1.52926e-20
3.09883e-20
1.31119e-19
0.239597
4.92485e-07
-5.02673e-06
-2.24821e-16
-3.47548e-08
-9.26762e-08
-1.57363e-08
1
1
9.41928e-11
9.72486e-11
-1.33637e-10
-3.58804e-13
1.07299e-06
1.1501e-06
1.21506e-06
-0.000322731
-3.72559e-15
-3.58727e-15
1.11153e-15
5.63666e-13
4.50032e-13
2.62055e-05
-0.00301172
-0.0076238
-0.00187657
-1.38962e-12
2.76234e-12
1.12915e-15
-1.62872e-18
-1.69993e-18
-3.07971e-18
1.03562e-08
6.78002e-09
3.61827e-10
2.88019e-05
1.81632e-12
1.48834e-12
0.926392
5.3043e-05
9.51716e-16
-7.90719e-07
1.00652
1.0016
1.0051
0.999788
1.00058
0.99964
0.999494
0.999871
0.999658
1
0.999934
1.00002
1.00003
1.00001
1.00002
1
1
0.999999
0.999998
1
0.999999
1
1
1
1
1
1
1
1
1
1
1
1
1
1
1
1
1
1
1
1
1
1
1
1
1
1
1
1
1
1
1
1
1
1
1
1
1
1
1
1
1
1
1
1
1
1
1
1
1
1
1
1
1
1
1
0.461913
1
-6.69298e-06
-4.46177e-08
-5.75585e-06
7.09959e-05
-5.11394e-17
3.98086e-06
2.50021e-15
1.58288e-12
6.84309e-17
-5.53947e-08
-5.98901e-08
0.441637
-4.10567e-16
-1.90851e-16
-1.90638e-16
9.51487e-16
5.17989e-10
-1.20319e-06
-7.06404e-06
2.87865e-13
2.89466e-07
-3.79668e-13
5.08212e-05
-2.59499e-11
-8.82489e-11
-1.51452e-11
-1.89053e-18
0.00019325
0.000256975
0.480209
-1.22691e-17
-8.07953e-18
0.980044
-1.60798e-16
-1.38984e-16
9.14427e-11
0.145562
-6.20578e-12
-7.12455e-12
1.62384e-11
3.43882e-12
1.52942e-12
0.380168
0.000109397
-3.88243e-12
1.44278e-10
2.6026e-12
1
1.0092
1.01154
1.00152
-6.30969e-09
4.00198e-08
-5.16675e-08
-3.09333e-06
-1.33466e-06
0.811422
0.898621
0.516607
4.96934e-06
4.85322e-06
3.13428e-09
8.03939e-09
2.20606e-09
-7.09903e-08
-3.42421e-06
1.9892e-14
1.25627e-14
0.999999
1
0.999998
1.00001
1.00001
0.999986
0.999996
0.999981
0.999975
1.00001
0.999981
1.00013
1.00012
0.999972
1.00011
0.999631
0.999745
0.999623
0.999465
1.00012
0.999596
1.00198
1.00095
1.00493
1.00429
1.00466
1.00671
0.994336
1.0025
0.967644
0.983962
0.919981
0.945311
0.849998
0.885266
0.761325
0.802485
0.661101
0.706437
0.553368
0.600234
0.450552
0.49275
0.356215
0.395464
0.267644
0.302774
0.196697
0.223086
0.141268
0.162617
0.0976352
0.113841
0.0664929
0.0778364
0.0443442
0.0526113
0.0285055
0.0340686
0.0182439
0.0218391
0.0114081
0.0137887
0.00695852
0.00843162
0.00420646
0.00516837
0.00246525
0.00305909
0.00145017
0.00180277
0.000838842
0.00106215
0.000477808
0.000618598
0.000156524
0.000165029
0.000246774
2.18445e-17
8.66379e-17
-3.69608e-16
-7.74534e-16
1.83384e-05
5.68973e-05
-2.31243e-09
-8.45609e-09
5.46051e-07
3.05599e-08
-1.97711e-08
-4.11722e-17
-2.19972e-05
-1.42737e-05
-1.22762e-12
4.62007e-13
-9.16971e-07
7.91203e-08
9.17941e-08
1.16832e-10
-1.26657e-10
1.8622e-05
-2.26171e-11
-1.66573e-11
5.52317e-16
6.66157e-13
7.20987e-13
-4.27733e-16
0.227186
-8.48179e-19
2.22549e-20
-1.98465e-09
8.02185e-05
3.26469e-05
1.05185e-06
9.25429e-07
-4.05995e-11
-0.00126084
8.29573e-05
9.41766e-14
-4.45689e-13
9.58965e-05
0.000127785
8.72314e-14
4.48435e-08
5.27233e-06
2.84155e-09
2.2148e-09
-2.56035e-18
-1.00589e-19
-2.74849e-18
-7.56853e-08
-6.97918e-08
0.999999
2.89019e-15
1.27484e-13
0.0898452
0.017623
-1.95168e-10
1.19972e-10
0.000331722
0.000143361
0.000315523
9.1173e-05
2.24487e-15
7.93836e-16
-4.56489e-15
-4.02765e-15
-9.09416e-16
-0.00493102
-0.00382035
2.04806e-12
1.64322e-12
5.09596e-08
-6.4353e-08
-2.45295e-18
-5.14392e-18
2.34671e-17
-1.27062e-05
-4.02159e-06
6.21146e-07
2.53969e-13
3.36307e-11
3.88975e-11
6.61884e-14
-5.18584e-17
1.37759e-13
1.00315
1.00032
1.00206
0.999612
0.999788
0.999759
0.999525
0.999949
0.99981
1.00002
0.999991
1.00002
1.00003
1
1.00001
0.999999
1
0.999999
0.999998
1
0.999999
1
1
1
1
1
1
1
1
1
1
1
1
1
1
1
1
1
1
1
1
1
1
1
1
1
1
1
1
1
1
1
1
1
1
1
1
1
1
1
1
1
1
1
1
1
1
1
1
9.87735e-17
-5.31788e-06
3.4073e-16
1.21702e-14
2.09256e-05
0.000237686
-6.69013e-10
-5.71111e-06
2.37597e-07
-0.000373848
0.000169759
0.000149153
0.000349149
0.000189403
0.000221833
0.000269264
-4.10542e-17
-7.69151e-17
4.77433e-06
6.18821e-08
9.09778e-06
6.26132e-06
3.57569e-07
9.7553e-06
4.40494e-20
0.999999
4.10785e-14
3.47119e-14
1.00001
1.00001
0.999994
1
0.999981
0.99998
0.99999
0.999968
1.00012
1.00009
1.00005
1.00015
0.999743
0.999868
0.999575
0.999555
0.999714
0.999371
1.00125
1.0003
1.00445
1.00333
1.00584
1.00679
0.999288
1.00506
0.977702
0.991598
0.935573
0.958487
0.873566
0.905107
0.789553
0.830512
0.691382
0.735845
0.587092
0.634157
0.479634
0.524654
0.383427
0.422844
0.292702
0.330098
0.21489
0.244669
0.156023
0.178361
0.109795
0.127498
0.0747568
0.0874566
0.0506954
0.0595148
0.0328499
0.0393085
0.0209064
0.0251202
0.013194
0.0159381
0.00802535
0.00979695
0.00491371
0.00597492
0.00295544
0.00362228
0.00175058
0.00215176
0.00107031
0.00131976
0.00065483
0.000478277
0.000851835
9.65266e-11
-1.38867e-10
8.52732e-07
-8.22457e-07
1.8667e-06
2.7572e-15
1.79007e-15
9.67166e-05
0.000171178
-4.89554e-09
6.94695e-08
-0.00742324
-0.00937785
-8.11363e-07
-5.93974e-06
-4.18714e-06
-8.26156e-06
-4.17183e-09
4.79656e-09
-4.50544e-08
2.30116e-07
7.98825e-20
9.26525e-20
-1.03295e-20
0.800147
1.15474e-12
1.00668
-1.97938e-16
-1.9548e-16
1
1.00742
1.0082
-2.77396e-10
-1.57637e-10
-4.04392e-06
9.84098e-11
0.999998
-4.17176e-11
1.15049e-16
-6.51005e-08
-4.082e-13
-2.04707e-14
-5.10246e-07
0.999999
1.01123
-4.06327e-11
-1.52529e-11
-0.00306921
8.38598e-11
-3.94964e-11
0.000170288
0.000111009
1.29013e-06
1.97998e-12
1.57262e-14
-9.15167e-08
-9.70312e-08
-2.27058e-17
-0.00162017
-4.50311e-13
2.54628e-12
-2.96265e-09
-3.37297e-09
1.07782e-13
-5.21393e-17
-4.24892e-19
4.21662e-05
-4.11938e-18
5.20142e-09
-1.47505e-07
0.967021
0.990011
0.880757
-8.44666e-08
-1.3238e-07
2.02951e-13
0.406815
0.52581
0.186207
6.73368e-09
7.49236e-09
2.09244e-11
1.0606e-13
1.47473e-13
1.91897e-13
-5.33917e-13
2.42865e-10
-7.75708e-10
9.50568e-15
-1.33411e-05
-1.85679e-05
-5.22015e-15
0.000257611
0.000234621
-8.82089e-09
-7.35295e-11
-6.68392e-11
4.31213e-05
-9.46296e-12
-8.43881e-12
-0.00714443
-0.00703083
8.32095e-07
4.91069e-17
1.29345e-16
5.62477e-09
2.27635e-09
-3.16913e-18
-7.84745e-18
5.42486e-17
-7.25652e-08
-5.71323e-11
7.45671e-11
1.77973e-06
8.1919e-07
9.62425e-07
-1.96765e-17
0.000107069
-6.16723e-07
3.22144e-06
-3.77788e-12
-1.26043e-11
-2.47684e-12
1.00543
7.96073e-11
7.97026e-11
1.00132
1.00409
0.999727
1.00042
0.999636
0.999492
0.99987
0.999671
0.999999
0.99993
1.00002
1.00002
1.00001
1.00002
1
1
0.999998
0.999998
0.999998
0.999997
0.999999
0.999998
0.999999
0.999999
0.999999
0.999999
0.999999
0.999999
0.999999
0.999999
0.999999
0.999999
0.999999
0.999999
0.999999
0.999999
0.999999
0.999999
0.999999
0.999999
0.999999
0.999999
0.999999
0.999999
0.999999
0.999999
0.999999
0.999999
0.999999
0.999999
0.999999
0.999999
0.999999
0.999999
0.999999
0.999999
0.999999
0.999999
0.999999
0.999999
0.999999
0.999999
0.999999
0.999998
0.999998
0.999999
0.999998
2.56666e-14
-2.32796e-06
1.00185
1.42014e-15
4.45714e-06
0.000429513
-4.21459e-15
-1.19169e-11
-1.12127e-11
6.35551e-16
-3.55536e-18
-1.83423e-14
2.33928e-14
-1.57541e-10
1.88783e-10
-3.87713e-09
-7.14995e-18
-1.58043e-07
1.07125e-06
-2.29549e-06
0.000177338
6.02079e-16
4.79136e-17
2.51107e-17
-4.94319e-18
1.28263e-07
6.36733e-07
-4.3808e-08
5.32182e-15
4.27713e-15
2.10963e-11
1.53505e-05
6.47395e-06
8.90066e-05
0.0002015
1
1
-7.27361e-15
-6.66395e-16
1
1.00001
0.999984
0.999987
0.99998
0.999968
1.0001
1.00005
1.00009
1.00014
0.999842
0.99995
0.999613
0.999667
0.999503
0.999309
1.00067
0.999851
1.00367
1.00246
1.00594
1.00608
1.00223
1.00609
0.985623
0.996482
0.949605
0.969621
0.89364
0.921958
0.816697
0.853474
0.722156
0.763522
0.619034
0.663036
0.512264
0.557265
0.41027
0.450817
0.317705
0.354058
0.237758
0.268403
0.171783
0.196095
0.122366
0.140462
0.0847087
0.0985866
0.0569314
0.0666383
0.0376878
0.0445181
0.0243179
0.028953
0.0152663
0.0182573
0.00945639
0.0114472
0.0057465
0.00699534
0.00345972
0.00422837
0.00207286
0.00251892
0.00127238
0.00149899
-4.18046e-13
-2.33837e-13
8.84896e-08
-1.52894e-07
-0.00509819
-0.00953306
-8.23505e-06
2.13043e-06
7.68662e-08
9.55361e-05
1.20881e-08
5.06605e-07
1.31688e-06
1.00993
1.0101
-5.41842e-15
-6.00251e-11
3.94131e-11
-3.66406e-09
-2.70853e-16
2.86139e-09
-9.2816e-06
1.42668e-10
4.38795e-11
1.01004
0.0009399
-1.80091e-10
-2.14042e-12
-1.57483e-12
-0.0020211
2.63829e-11
2.70291e-11
-5.39888e-11
-8.48568e-11
9.45252e-07
-5.88015e-08
-7.00546e-11
1.5009e-14
-0.000344264
-2.06448e-09
-3.64145e-09
-1.29972e-11
-8.5474e-19
1.51135e-07
3.07362e-14
3.18877e-16
0.97733
0.948336
-8.39275e-06
0.415644
0.000391616
0.000544716
1.57057e-14
-5.66266e-08
-1.28028e-08
0.00030234
0.000259778
-7.18497e-17
-8.74816e-17
-4.09697e-15
0.0315322
-1.72007e-06
5.44645e-07
2.33333e-12
-1.4812e-11
2.13113e-13
-1.72954e-09
1.0413e-15
9.38763e-09
0.00943256
0.775529
0.856433
0.520652
1.3867e-14
0.120649
4.68049e-09
4.88226e-14
2.64432e-13
0.000326298
0.000387937
0.000465269
0.000297428
0.000351141
-2.46857e-05
-1.10459e-05
5.10666e-11
9.65423e-05
1.48676e-16
-2.21216e-16
-1.44462e-06
-0.00522354
1.67671e-05
-0.0084062
-0.00933476
-1.15975e-07
-9.86813e-08
-8.91142e-06
1.95487e-09
5.62921e-10
0.000307674
0.000276252
-1.46803e-08
-6.85105e-06
-3.54762e-06
2.14952e-16
9.81459e-08
-6.40948e-09
-1.12761e-08
-2.76665e-09
4.48387e-13
-2.27456e-11
1.77455e-10
2.05264e-12
1.00836
-7.71758e-06
-1.2277e-05
1.00287
1.00695
1.00006
1.00149
0.99954
0.999561
0.999766
0.999516
0.999963
0.999844
1.00002
1
1.00002
1.00003
1
1.00001
0.999999
1
0.999999
0.999999
1
1
1
1
1
1
1
1
1
1
1
1
1
1
1
1
1
1
1
1
1
1
1
1
1
1
1
1
1
1
1
1
1
1
1
1
1
1
1
1
1
1
1
1
1
-2.456e-09
-1.31397e-05
0.203942
0.000173221
3.32055e-11
3.49102e-11
1.18981e-16
1.03363e-16
-2.68891e-13
1.64252e-06
1.23125e-06
4.01272e-09
3.78497e-15
1.08308e-10
-2.41472e-09
1.00218e-06
1.58588e-15
4.83646e-15
0.000777936
-8.46092e-15
-2.02248e-14
5.74622e-14
-7.06279e-13
-5.80543e-13
2.81501e-16
2.32845e-16
2.78384e-10
5.58651e-09
3.4111e-09
1.08035e-06
-1.4994e-05
0.0003283
4.1218e-05
-6.5961e-06
8.7505e-08
1.07886e-06
-5.42911e-06
-1.41293e-05
7.39595e-16
6.17222e-16
1.00001
1.00001
0.999986
0.999992
0.999975
0.999971
1.00007
1.00002
1.00009
1.00012
0.999908
1.00001
0.999675
0.999788
0.999344
0.999301
1.00014
0.999489
1.00295
1.00165
1.00588
1.00537
1.00428
1.00678
0.99164
1.00039
0.961945
0.978636
0.912132
0.936655
0.839268
0.873671
0.747537
0.78769
0.647353
0.690553
0.54055
0.585108
0.436631
0.476975
0.340959
0.378511
0.256809
0.28844
0.188298
0.213706
0.134626
0.154252
0.0936185
0.108415
0.0636613
0.0740798
0.042372
0.0498223
0.027299
0.0323525
0.0172668
0.0206282
0.010757
0.012957
0.00660785
0.00796344
0.00405996
0.00494669
0.00238469
0.0029498
0.00136301
0.00168011
-1.12359e-12
-9.04069e-13
6.35671e-12
3.27309e-10
-7.45712e-11
-0.00384508
-0.00122044
2.42777e-05
3.9406e-06
-2.57584e-07
1.16843e-08
0.00343605
-0.00547394
9.87541e-06
2.68508e-05
0.000188293
0.000370732
1.25137e-06
-5.32134e-06
0.988895
-5.33386e-08
-1.23076e-07
-4.48502e-08
2.61429e-07
-1.86521e-05
-2.79092e-05
-1.88531e-05
8.14985e-06
3.14781e-10
-9.29541e-12
-1.32968e-05
-6.8289e-11
-6.20725e-11
1.24738e-10
-3.15706e-12
-2.85691e-12
4.28826e-10
2.25896e-05
2.34308e-05
2.65645e-07
0.141512
-0.0086544
-3.60233e-09
-2.09794e-09
1.01093
1.94548e-16
0.000926778
-1.80582e-13
-4.10557e-14
1.32807e-07
1.17864e-07
-5.92508e-11
1.71516e-06
0.0278305
4.907e-07
-1.92985e-14
6.41749e-10
3.54158e-10
3.89393e-11
2.56789e-12
0.000255683
-0.000274457
0.000526483
-5.97641e-15
-1.78756e-11
3.51002e-11
9.39074e-10
8.66456e-10
-9.25945e-09
-4.08865e-08
-3.35568e-08
1.88728e-15
-3.45429e-11
-1.87263e-11
-7.62956e-12
-1.90936e-11
-6.4415e-12
0.000201995
0.0440114
0.398475
0.201112
0.00052675
0.000457614
1.01332
0.000210555
-4.09906e-16
2.89217e-13
3.85931e-15
1.66791e-15
-0.00831096
-0.0137785
9.5515e-07
8.53357e-07
-9.81992e-16
-9.46998e-16
-4.85773e-15
0.943215
0.905741
-4.21023e-14
-2.28214e-14
0.000357625
0.000429886
-2.60034e-07
-1.0789e-05
-2.87677e-06
1.00546
-9.90962e-13
-9.4781e-13
0.000653164
0.000565591
-3.9986e-07
2.44832e-10
6.50101e-11
1.00554
1.00098
1.00383
0.999561
1.00005
0.999628
0.999378
0.999893
0.999697
1.00002
0.999963
1.00003
1.00004
1.00001
1.00003
1
1.00001
1
1
1
1
1
1.00001
1
1.00001
1
1.00001
1
1.00001
1
1.00001
1
1.00001
1
1.00001
1
1.00001
1
1.00001
1
1.00001
1
1.00001
1
1.00001
1
1.00001
1
1.00001
1
1.00001
1
1.00001
1
1.00001
1
1.00001
1
1.00001
1.00001
1.00001
1.00001
-4.59021e-09
-3.78141e-09
-0.00802318
-0.0032083
9.22012e-08
-5.61043e-08
0.00078345
2.15466e-05
1.30166e-06
2.16657e-16
2.9535e-16
-3.00346e-16
0.960607
-4.31442e-13
-7.1634e-10
-1.01171e-09
-4.99624e-09
1.505e-07
-4.0045e-07
-2.30184e-14
0.108714
-6.64775e-11
-7.33554e-11
-1.1842e-13
-8.46195e-14
1.54755e-12
-2.00322e-11
1.30764e-13
3.88215e-13
3.76546e-09
1.55522e-09
-4.08721e-09
9.15873e-10
0.00037668
-1.31859e-05
0.722887
0.786149
0.474099
0.000161408
3.7015e-05
0.000690066
1.71464e-06
1.33262e-09
-1.62705e-05
1.94917e-05
4.42084e-16
3.35486e-16
0.999989
0.999996
0.999978
0.999978
1.00003
0.999995
1.00008
1.00009
0.999963
1.00005
0.999776
0.999889
0.999329
0.999369
0.999809
0.999256
1.00226
1.00104
1.00532
1.00452
1.00514
1.0068
0.995798
1.0026
0.971021
0.98487
0.92572
0.948409
0.85733
0.889097
0.770825
0.808706
0.673498
0.714818
0.566631
0.610106
0.460711
0.501534
0.36231
0.400173
0.275902
0.307562
0.204598
0.230788
0.146858
0.167474
0.102952
0.11812
0.0705766
0.0817073
0.0466843
0.0546526
0.030379
0.0357378
0.0194499
0.0230919
0.0121642